<VTKFile type="PolyData">
<PolyData>
<Piece NumberOfPoints="1840" NumberOfVerts="1840" NumberOfLines="0" NumberOfStrips="0" NumberOfPolys="0">
<PointData>
<DataArray type="Float64" Name="Pressure" format="ascii">
 0.000000 0.000000 0.000000 0.000000 0.000000 0.000000 0.000000 0.000000 0.000000 0.000000 0.000000 0.000000 0.000000 0.000000 0.000000 0.000000 0.000000 0.000000 0.000000 0.000000 0.000000 0.000000 0.000000 0.000000 0.000000 0.000000 0.000000 0.000000 0.000000 0.000000 0.000000 0.000000 0.000000 0.000000 0.000000 0.000000 0.000000 0.000000 0.000000 0.000000 0.000000 0.000000 0.000000 0.000000 0.000000 0.000000 0.000000 0.000000 0.000000 0.000000 0.000000 0.000000 0.000000 0.000000 0.000000 0.000000 0.000000 0.000000 0.000000 0.000000 0.000000 0.000000 0.000000 0.000000 0.000000 0.000000 0.000000 0.000000 0.000000 0.000000 0.000000 0.000000 0.000000 0.000000 0.000000 0.000000 0.000000 0.000000 0.000000 0.000000 0.000000 0.000000 0.000000 0.000000 0.000000 0.000000 0.000000 0.000000 0.000000 0.000000 0.000000 0.000000 0.000000 0.000000 0.000000 0.000000 0.000000 0.000000 0.000000 0.000000 0.000000 0.000000 0.000000 0.000000 0.000000 0.000000 0.000000 0.000000 0.000000 0.000000 0.000000 0.000000 0.000000 0.000000 0.000000 0.000000 2526.976557 8760.998554 6594.553764 7894.799619 0.000000 3627.313522 18683.081559 7828.586688 0.000000 0.000000 0.000000 0.000000 0.000000 0.000000 0.000000 0.000000 0.000000 0.000000 0.000000 0.000000 0.000000 0.000000 0.000000 0.000000 0.000000 0.000000 0.000000 0.000000 0.000000 0.000000 0.000000 0.000000 0.000000 0.000000 0.000000 0.000000 0.000000 0.000000 0.000000 0.000000 0.000000 0.000000 0.000000 0.000000 0.000000 0.000000 0.000000 0.000000 0.000000 0.000000 0.000000 0.000000 0.000000 0.000000 0.000000 0.000000 0.000000 34024.896022 88254.730004 52006.827867 52663.898327 0.000000 0.000000 8024.593145 0.000000 0.000000 0.000000 0.000000 0.000000 0.000000 0.000000 0.000000 0.000000 0.000000 0.000000 0.000000 0.000000 0.000000 0.000000 0.000000 0.000000 0.000000 0.000000 0.000000 0.000000 0.000000 0.000000 0.000000 0.000000 0.000000 0.000000 0.000000 0.000000 0.000000 0.000000 0.000000 0.000000 0.000000 0.000000 0.000000 0.000000 0.000000 0.000000 0.000000 0.000000 0.000000 0.000000 0.000000 0.000000 0.000000 0.000000 0.000000 0.000000 0.000000 49080.582502 66481.038331 41138.751044 0.000000 0.000000 0.000000 17921.126997 0.000000 0.000000 0.000000 0.000000 0.000000 24019.543105 0.000000 3486.958339 0.000000 98555.616634 65455.180456 0.000000 0.000000 0.000000 0.000000 0.000000 0.000000 27420.106359 70637.483441 38709.432556 9386.482053 15904.716374 0.000000 38856.781450 16917.694903 43763.140131 13899.172587 0.000000 0.000000 0.000000 0.000000 14032.086223 0.000000 51820.879267 0.000000 0.000000 0.000000 0.000000 0.000000 8986.678008 0.000000 88153.590336 11359.634727 19315.477327 83165.792717 109949.486847 0.000000 0.000000 31999.555688 26131.942750 95864.653700 44302.615044 0.000000 0.000000 7181.823858 0.000000 9355.202439 0.000000 0.000000 0.000000 10298.298646 24179.100126 78102.923313 0.000000 23155.051696 0.000000 53771.025777 0.000000 0.000000 41476.095981 35215.096272 86620.701556 0.000000 0.000000 4999.937237 10298.668319 14900.257894 16150.432711 65100.427488 0.000000 0.000000 0.000000 0.000000 0.000000 0.000000 17538.631557 62513.917651 57284.008602 11591.823844 0.000000 86673.918188 18938.810068 0.000000 50091.510220 26970.331491 0.000000 98406.911663 0.000000 0.000000 0.000000 20852.983606 0.000000 40868.043090 43606.482092 65261.957308 0.000000 6360.445647 51504.774468 9550.312150 31027.061306 0.000000 40026.086422 0.000000 20976.209793 37141.050541 0.000000 31777.775090 34957.291237 0.000000 0.000000 0.000000 17725.038406 0.000000 65822.044797 8688.453392 0.000000 0.000000 0.000000 0.000000 0.000000 0.000000 21892.770553 62934.946162 77226.383994 15656.702455 0.000000 32828.295980 0.000000 224632.300803 0.000000 0.000000 0.000000 40072.396196 4969.681672 0.000000 50837.793280 54168.803260 30447.377995 61496.361275 23349.063691 0.000000 215.549122 0.000000 0.000000 0.000000 13035.094543 58435.405312 71071.144670 86874.776585 53679.048629 0.000000 12723.068480 51273.951431 0.000000 42409.437836 15588.108094 708.735239 57235.586263 0.000000 22886.200902 32323.326568 38591.263334 0.000000 0.000000 0.000000 0.000000 0.000000 1824.180372 0.000000 272158.858293 42489.236955 0.000000 131402.001364 0.000000 0.000000 0.000000 0.000000 17293.336463 61994.527596 0.000000 77810.135512 0.000000 109054.990090 154420.670350 0.000000 0.000000 0.000000 0.000000 181140.329177 0.000000 0.000000 0.000000 0.000000 45022.879191 28322.218314 0.000000 28396.073514 45738.109582 0.000000 10257.095284 0.000000 0.000000 0.000000 62298.836064 63344.518990 1963.539892 0.000000 24691.016895 0.000000 0.000000 0.000000 0.000000 0.000000 580.607956 0.000000 36668.431843 0.000000 0.000000 0.000000 0.000000 212613.873707 119144.469136 0.000000 0.000000 0.000000 196782.542493 0.000000 0.000000 350826.518724 59545.632763 0.000000 265789.247984 928.362416 193153.995780 50479.669475 0.000000 103399.820588 0.000000 19021.785266 165180.455923 0.000000 0.000000 0.000000 0.000000 15217.963588 9564.828667 0.000000 0.000000 59928.729561 5872.675105 151454.137449 0.000000 11564.870966 82978.924250 0.000000 0.000000 0.000000 0.000000 0.000000 15758.875532 53878.961977 0.000000 0.000000 0.000000 0.000000 0.000000 69937.620902 82132.474455 0.000000 0.000000 119426.257588 0.000000 23227.835304 0.000000 19332.789299 0.000000 0.000000 106316.385157 30659.122569 104783.423552 0.000000 0.000000 57278.107195 79425.679215 5972.298007 139046.987413 0.000000 22432.081581 43976.181076 0.000000 0.000000 41454.097262 145612.303766 82004.288210 0.000000 0.000000 0.000000 40701.293356 0.000000 0.000000 0.000000 0.000000 0.000000 0.000000 0.000000 22778.516174 72638.468787 148411.561472 18155.094717 696011.070220 0.000000 0.000000 0.000000 446726.363640 224993.394766 0.000000 1930.012231 0.000000 0.000000 0.000000 14386.145428 410481.717628 0.000000 74633.700367 0.000000 0.000000 11355.759656 0.000000 13045.935003 259438.602518 0.000000 0.000000 131546.584132 0.000000 336060.630065 0.000000 87231.175227 0.000000 0.000000 0.000000 0.000000 43234.711885 0.000000 0.000000 0.000000 0.000000 0.000000 0.000000 0.000000 0.000000 0.000000 17884.919692 31972.716987 0.000000 277489.222081 260442.497086 8478.022933 0.000000 136320.351163 173261.222941 0.000000 0.000000 32086.954531 0.000000 0.000000 0.000000 0.000000 0.000000 44993.552753 195220.976892 0.000000 0.000000 32546.272196 0.000000 0.000000 86794.797816 51192.113507 111078.117684 0.000000 33168.144879 0.000000 0.000000 25140.677327 0.000000 0.000000 60595.611028 107131.996033 168001.129411 18350.494834 0.000000 0.000000 0.000000 0.000000 0.000000 0.000000 0.000000 0.000000 44312.803337 76924.100191 0.000000 0.000000 96997.611315 0.000000 0.000000 0.000000 0.000000 272805.134985 0.000000 0.000000 124700.066732 0.000000 0.000000 161868.606186 0.000000 154492.337750 82729.316512 0.000000 0.000000 90613.060052 0.000000 95624.081254 19687.100006 0.000000 0.000000 0.000000 0.000000 0.000000 481694.231811 0.000000 34548.756329 0.000000 0.000000 66818.983258 15752.922358 308913.081370 350914.885343 141321.704800 9940.473957 0.000000 0.000000 0.000000 0.000000 0.000000 22765.828280 35322.776980 0.000000 0.000000 0.000000 0.000000 0.000000 0.000000 0.000000 0.000000 0.000000 21604.535688 0.000000 0.000000 0.000000 145729.065199 0.000000 0.000000 0.000000 87901.513384 0.000000 44524.998182 0.000000 0.000000 229203.067336 144146.252868 0.000000 436339.324296 0.000000 0.000000 87516.857888 0.000000 0.000000 0.000000 249211.823602 0.000000 228795.740752 0.000000 14707.500798 35269.800352 0.000000 0.000000 0.000000 0.000000 0.000000 0.000000 4685.146910 30270.277268 0.000000 0.000000 0.000000 0.000000 0.000000 0.000000 0.000000 173392.992712 0.000000 162539.344173 0.000000 298689.342890 0.000000 0.000000 25473.512996 0.000000 67705.498321 0.000000 0.000000 161941.901560 0.000000 0.000000 0.000000 562691.294224 27121.489180 98070.161062 0.000000 0.000000 0.000000 0.000000 0.000000 0.000000 0.000000 0.000000 0.000000 0.000000 0.000000 0.000000 0.000000 0.000000 0.000000 0.000000 0.000000 0.000000 14453.726638 71951.655209 0.000000 0.000000 0.000000 0.000000 99337.863032 0.000000 0.000000 0.000000 0.000000 0.000000 0.000000 0.000000 0.000000 0.000000 55266.735780 0.000000 0.000000 0.000000 0.000000 0.000000 0.000000 0.000000 0.000000 81765.128814 0.000000 70157.630995 0.000000 0.000000 199821.921020 0.000000 0.000000 0.000000 189017.656909 0.000000 0.000000 246944.011778 0.000000 0.000000 0.000000 0.000000 0.000000 0.000000 0.000000 0.000000 44253.595443 41647.711269 0.000000 0.000000 0.000000 0.000000 0.000000 61552.803629 6040.008771 0.000000 0.000000 0.000000 0.000000 0.000000 0.000000 0.000000 0.000000 0.000000 0.000000 0.000000 0.000000 26517.022396 0.000000 0.000000 0.000000 0.000000 184943.448116 0.000000 0.000000 0.000000 77015.213162 0.000000 0.000000 0.000000 133870.599558 72646.689788 0.000000 0.000000 34508.693037 0.000000 441036.796363 0.000000 0.000000 0.000000 0.000000 0.000000 38964.940923 24123.709840 0.000000 0.000000 0.000000 0.000000 0.000000 0.000000 0.000000 0.000000 0.000000 19592.048692 0.000000 0.000000 0.000000 0.000000 0.000000 19258.352895 227379.357703 0.000000 0.000000 0.000000 53515.378166 0.000000 0.000000 0.000000 0.000000 0.000000 6361.367970 0.000000 67895.628649 0.000000 146409.768818 0.000000 0.000000 0.000000 33384.640816 0.000000 276754.853127 0.000000 163294.158919 0.000000 0.000000 0.000000 0.000000 0.000000 32867.497192 71353.285459 0.000000 0.000000 0.000000 0.000000 0.000000 0.000000 0.000000 0.000000 0.000000 0.000000 0.000000 0.000000 0.000000 0.000000 0.000000 0.000000 0.000000 0.000000 0.000000 0.000000 77786.897907 0.000000 0.000000 0.000000 18786.207340 0.000000 0.000000 0.000000 0.000000 0.000000 0.000000 0.000000 0.000000 19149.133865 117510.800025 0.000000 347229.725918 0.000000 0.000000 0.000000 0.000000 0.000000 0.000000 0.000000 30127.333542 67522.049593 0.000000 445429.145012 211191.039019 0.000000 0.000000 0.000000 0.000000 76174.662940 0.000000 0.000000 0.000000 425123.939925 0.000000 0.000000 0.000000 0.000000 0.000000 0.000000 0.000000 0.000000 0.000000 0.000000 0.000000 0.000000 0.000000 0.000000 0.000000 0.000000 0.000000 0.000000 0.000000 0.000000 0.000000 0.000000 0.000000 0.000000 0.000000 0.000000 0.000000 0.000000 0.000000 0.000000 0.000000 0.000000 9916.122684 31404.939278 0.000000 0.000000 0.000000 73132.468200 14602.135015 14602.135015 119006.082674 56725.415795 108143.553553 0.000000 254164.755448 179972.944014 0.000000 0.000000 0.000000 0.000000 0.000000 0.000000 0.000000 0.000000 0.000000 0.000000 0.000000 0.000000 0.000000 0.000000 0.000000 0.000000 0.000000 0.000000 0.000000 0.000000 0.000000 0.000000 0.000000 0.000000 488349.126389 507831.111996 54650.216250 0.000000 0.000000 0.000000 0.000000 0.000000 12166.513964 45662.538911 7672.931543 0.000000 0.000000 127235.991650 170142.305208 0.000000 40383.793032 0.000000 0.000000 226968.787527 0.000000 0.000000 0.000000 466607.351609 0.000000 179502.657588 0.000000 49090.394885 0.000000 0.000000 0.000000 0.000000 0.000000 0.000000 0.000000 0.000000 0.000000 0.000000 0.000000 0.000000 0.000000 0.000000 0.000000 0.000000 596746.719844 0.000000 0.000000 0.000000 0.000000 0.000000 0.000000 0.000000 0.000000 0.000000 6682.304709 38204.099551 0.000000 0.000000 0.000000 0.000000 0.000000 9438.760367 50360.864294 0.000000 0.000000 0.000000 0.000000 0.000000 4291.010068 22311.933203 0.000000 0.000000 0.000000 0.000000 0.000000 2598.401145 7642.747673 0.000000 0.000000 0.000000 0.000000 0.000000 20080.557507 35729.301495 0.000000 0.000000 0.000000 0.000000 0.000000 46505.987888 88369.114557 0.000000 0.000000 0.000000 0.000000 0.000000 19021.963322 23011.952318 0.000000 0.000000 0.000000 0.000000 0.000000 14580.299766 46124.507863 0.000000 0.000000 0.000000 0.000000 0.000000 24720.606214 96701.085493 0.000000 0.000000 0.000000 0.000000 0.000000 11381.295912 29400.557238 0.000000 0.000000 0.000000 0.000000 0.000000 0.000000 0.000000 0.000000 0.000000 0.000000 0.000000 0.000000 3879.308354 26833.245645 0.000000 0.000000 0.000000 0.000000 0.000000 11833.876251 81000.860197 0.000000 0.000000 0.000000 0.000000 0.000000 12105.399565 61095.943110 0.000000 0.000000 0.000000 0.000000 0.000000 40934.819496 123505.545171 0.000000 0.000000 0.000000 0.000000 0.000000 57262.608582 172059.161237 0.000000 0.000000 0.000000 0.000000 0.000000 26112.315632 65876.336804 0.000000 0.000000 0.000000 0.000000 0.000000 52526.434170 92639.418061 0.000000 0.000000 0.000000 0.000000 0.000000 32297.805792 23730.123088 0.000000 0.000000 0.000000 0.000000 0.000000 25481.326359 65415.456916 0.000000 0.000000 0.000000 0.000000 0.000000 39868.851907 97657.292303 0.000000 0.000000 0.000000 0.000000 0.000000 44848.727373 34750.474927 0.000000 0.000000 0.000000 0.000000 0.000000 23026.182676 2050.476804 0.000000 0.000000 0.000000 0.000000 0.000000 27989.072266 82835.836035 0.000000 0.000000 0.000000 0.000000 0.000000 25179.487381 111971.962096 0.000000 0.000000 0.000000 0.000000 0.000000 31655.890608 71947.105670 0.000000 0.000000 0.000000 0.000000 0.000000 18087.306417 10917.205445 0.000000 0.000000 0.000000 0.000000 0.000000 25488.424263 41579.463378 0.000000 0.000000 0.000000 0.000000 0.000000 63302.914533 155238.575154 0.000000 0.000000 0.000000 0.000000 0.000000 49194.890456 166824.511695 0.000000 0.000000 0.000000 0.000000 0.000000 65712.711126 278181.315328 0.000000 0.000000 0.000000 0.000000 0.000000 36734.451199 238399.563113 0.000000 0.000000 0.000000 0.000000 0.000000 20745.929552 110002.715000 0.000000 0.000000 0.000000 0.000000 0.000000 52346.775573 168977.266501 0.000000 0.000000 0.000000 0.000000 0.000000 25040.698147 108735.841974 0.000000 0.000000 0.000000 0.000000 0.000000 8510.081006 84434.354042 0.000000 0.000000 0.000000 0.000000 0.000000 45834.828716 111538.691080 0.000000 0.000000 0.000000 0.000000 0.000000 51628.813268 69755.057148 0.000000 0.000000 0.000000 0.000000 0.000000 9647.628009 0.000000 0.000000 0.000000 0.000000 0.000000 0.000000 10546.436888 32947.891722 0.000000 0.000000 0.000000 0.000000 0.000000 3555.463152 41757.932969 0.000000 0.000000 0.000000 0.000000 0.000000 10561.356142 83737.168827 0.000000 0.000000 0.000000 0.000000 0.000000 16127.722619 61711.888014 0.000000 0.000000 0.000000 0.000000 0.000000 413.241734 0.000000 0.000000 0.000000 0.000000 0.000000 0.000000 0.000000 0.000000 0.000000 0.000000 0.000000 0.000000 0.000000 7297.756304 0.000000 0.000000 0.000000 0.000000 0.000000 0.000000 9037.200573 0.000000 0.000000 0.000000 0.000000 0.000000 0.000000 40102.686046 84843.163653 0.000000 0.000000 0.000000 0.000000 0.000000 58542.771678 369902.667463 0.000000 0.000000 0.000000 0.000000 0.000000 19399.991275 141152.167036 0.000000 0.000000 0.000000 0.000000 0.000000 18059.141777 25995.076485 0.000000 0.000000 0.000000 0.000000 0.000000 33027.369719 18495.546855 0.000000 0.000000 0.000000 0.000000 0.000000 16786.376439 0.000000 0.000000 0.000000 0.000000 0.000000 0.000000 13977.256902 5099.546228 0.000000 0.000000 0.000000 0.000000 0.000000 12230.584628 8895.828353 0.000000 0.000000 0.000000 0.000000 0.000000 21578.857664 49956.804292 0.000000 0.000000 0.000000 0.000000 0.000000 31357.479045 107061.244731 0.000000 0.000000 0.000000 0.000000 0.000000 20413.395825 38574.783713 0.000000 0.000000 0.000000 0.000000 0.000000 18442.825224 15772.311669 0.000000 0.000000 0.000000 0.000000 0.000000 2077.353151 0.000000 0.000000 0.000000 0.000000 0.000000 0.000000 0.000000 0.000000 0.000000 0.000000 0.000000 0.000000 0.000000 0.000000 0.000000 0.000000 0.000000 0.000000 0.000000 0.000000 0.000000 0.000000 0.000000 0.000000 0.000000 0.000000 0.000000 0.000000 0.000000 0.000000 0.000000 0.000000 0.000000 0.000000 6987.692290 0.000000 0.000000 0.000000 0.000000 0.000000 0.000000 645.738833 0.000000 0.000000 0.000000 0.000000 0.000000 0.000000 0.000000 0.000000 0.000000 0.000000 0.000000 0.000000 0.000000 0.000000 0.000000 0.000000 0.000000 0.000000 0.000000 0.000000 22198.486732 37058.718317 0.000000 0.000000 0.000000 0.000000 0.000000 41202.178198 146897.641268 0.000000 0.000000 0.000000 0.000000 0.000000 9794.091393 0.000000 0.000000 0.000000 0.000000 0.000000 0.000000 16009.223069 8681.362643 0.000000 0.000000 0.000000 0.000000 0.000000 8596.905339 1126.909042 0.000000 0.000000 0.000000 0.000000 0.000000 17451.408255 111750.021509 0.000000 0.000000 0.000000 0.000000 0.000000 48674.221352 429385.914437 0.000000 0.000000 0.000000 0.000000 0.000000 22572.109378 130089.571161 0.000000 0.000000 0.000000 0.000000 0.000000 11045.855981 78746.048039 0.000000 0.000000 0.000000 0.000000 0.000000 23808.545940 250058.774944 0.000000 0.000000 0.000000 0.000000 0.000000 14533.129188 69183.900079 0.000000 0.000000 0.000000 0.000000 0.000000 47159.730672 229538.458402 0.000000 0.000000 0.000000 0.000000 0.000000 82917.162379 480480.104291 0.000000 0.000000 0.000000 0.000000 0.000000 22214.157454 65058.012027 34544.891752 9898.095825 0.000000 0.000000 28273.637593 64704.672046 7770.162052 0.000000 14283.109350 4446.508626 5377.092234 0.000000 0.000000 0.000000 0.000000 0.000000 0.000000 0.000000 0.000000 0.000000 0.000000 0.000000 0.000000 0.000000 0.000000 0.000000 0.000000 0.000000 0.000000 0.000000 0.000000 0.000000 0.000000 0.000000 0.000000 0.000000 0.000000 0.000000 0.000000 0.000000 0.000000 0.000000 0.000000 0.000000 0.000000 0.000000 0.000000 0.000000 0.000000 0.000000 0.000000 0.000000 0.000000 0.000000 0.000000 0.000000 0.000000 0.000000 0.000000 0.000000 0.000000 0.000000 0.000000 0.000000 0.000000 0.000000 0.000000 0.000000 0.000000 0.000000 0.000000 0.000000 0.000000 0.000000 0.000000 0.000000 0.000000 0.000000 0.000000 0.000000 0.000000 0.000000 0.000000 0.000000 0.000000 0.000000 0.000000 0.000000 0.000000 0.000000 0.000000 0.000000 0.000000 0.000000 0.000000 0.000000 0.000000 0.000000 0.000000 0.000000 0.000000 0.000000 0.000000 0.000000 0.000000 0.000000 0.000000 0.000000 0.000000 0.000000 0.000000 0.000000 0.000000 0.000000 0.000000 0.000000 0.000000 0.000000 0.000000 0.000000 0.000000 0.000000 0.000000 0.000000 0.000000 0.000000 0.000000 0.000000 0.000000 0.000000 0.000000 0.000000 0.000000 0.000000 0.000000 0.000000 0.000000 0.000000 0.000000 0.000000 0.000000 0.000000 0.000000 0.000000 0.000000 0.000000 0.000000 0.000000 0.000000 0.000000 0.000000 0.000000 0.000000 0.000000 0.000000 0.000000 0.000000 0.000000 0.000000 0.000000 0.000000 0.000000 0.000000 0.000000 0.000000 0.000000 0.000000
</DataArray>
<DataArray type="Float64" Name="Velocity" NumberOfComponents="3" format="ascii">