<VTKFile type="PolyData">
<PolyData>
<Piece NumberOfPoints="1840" NumberOfVerts="1840" NumberOfLines="0" NumberOfStrips="0" NumberOfPolys="0">
<PointData>
<DataArray type="Float64" Name="Pressure" format="ascii">
 0.000000 0.000000 0.000000 0.000000 0.000000 0.000000 0.000000 0.000000 0.000000 0.000000 0.000000 0.000000 0.000000 0.000000 0.000000 0.000000 0.000000 0.000000 0.000000 0.000000 0.000000 0.000000 0.000000 0.000000 0.000000 0.000000 0.000000 0.000000 0.000000 0.000000 0.000000 0.000000 0.000000 0.000000 0.000000 0.000000 0.000000 0.000000 0.000000 0.000000 0.000000 0.000000 0.000000 0.000000 0.000000 0.000000 0.000000 0.000000 0.000000 0.000000 0.000000 0.000000 0.000000 0.000000 0.000000 0.000000 0.000000 0.000000 0.000000 0.000000 0.000000 0.000000 0.000000 0.000000 0.000000 0.000000 0.000000 0.000000 0.000000 0.000000 0.000000 0.000000 0.000000 0.000000 0.000000 0.000000 0.000000 0.000000 0.000000 0.000000 0.000000 0.000000 0.000000 0.000000 0.000000 0.000000 0.000000 0.000000 0.000000 0.000000 0.000000 0.000000 0.000000 0.000000 0.000000 0.000000 0.000000 0.000000 0.000000 0.000000 0.000000 0.000000 0.000000 0.000000 0.000000 0.000000 0.000000 0.000000 0.000000 0.000000 0.000000 0.000000 0.000000 0.000000 0.000000 0.000000 23812.924988 80948.280594 81779.644386 70874.821765 73705.988959 48020.889169 18227.504819 15105.606014 15584.042086 16679.616224 19795.484712 22169.535266 17252.388821 9134.323863 3642.632898 1280.669541 444.109177 131.377129 1.454536 0.000000 0.000000 0.000000 0.000000 0.000000 0.000000 0.000000 0.000000 0.000000 0.000000 0.000000 0.000000 0.000000 0.000000 0.000000 0.000000 0.000000 0.000000 0.000000 0.000000 0.000000 0.000000 0.000000 0.000000 0.000000 0.000000 0.000000 0.000000 0.000000 0.000000 0.000000 0.000000 0.000000 0.000000 0.000000 0.000000 0.000000 0.000000 92925.099812 375420.833337 303498.628541 265550.395425 294966.284425 265241.827001 197867.723084 194949.215310 194421.960346 194575.822705 217288.544744 260488.995821 226646.663730 124388.459402 50241.841124 18724.567314 7113.684861 2649.407893 853.794854 121.786238 0.000000 0.000000 0.000000 0.000000 0.000000 0.000000 0.000000 0.000000 0.000000 0.000000 0.000000 0.000000 0.000000 0.000000 0.000000 0.000000 0.000000 0.000000 0.000000 0.000000 0.000000 0.000000 0.000000 0.000000 0.000000 0.000000 0.000000 0.000000 0.000000 0.000000 0.000000 0.000000 0.000000 0.000000 0.000000 0.000000 0.000000 114134.754201 404015.624691 375420.833337 288838.922895 277604.664919 243533.421503 304385.681752 261871.440643 287337.532503 319252.169794 325274.632865 286652.447117 247977.886147 235850.117715 281400.773193 327513.612077 322391.067396 259633.525378 159902.625417 75581.749938 31220.901701 12423.939222 4881.764801 1822.639843 559.677163 60.011710 0.000000 0.000000 0.000000 0.000000 0.000000 0.000000 0.000000 0.000000 0.000000 0.000000 0.000000 0.000000 0.000000 0.000000 0.000000 0.000000 0.000000 0.000000 0.000000 0.000000 112928.258972 385803.872422 390035.610197 284423.407133 304160.537446 268408.692215 272382.249745 244902.596004 224729.171566 200646.316504 208096.748993 220893.944458 213969.964301 174136.099363 143637.423505 139506.337195 168374.359345 181784.743181 140573.246160 78963.356619 36081.876065 15107.928009 6211.624579 2532.244185 961.433013 269.301039 0.000000 0.000000 0.000000 0.000000 0.000000 0.000000 0.000000 0.000000 0.000000 0.000000 0.000000 0.000000 0.000000 0.000000 0.000000 0.000000 0.000000 0.000000 0.000000 0.000000 91626.559365 385025.274765 379917.522324 253329.687606 245139.809628 244693.920523 275369.824674 286099.634920 279127.106301 229623.800729 209815.336774 238111.518392 247959.051360 235795.666534 214777.288418 188640.583669 193611.955902 193547.682494 151762.661810 90120.028429 43073.651084 18399.909177 7576.413089 3059.256042 1145.194202 306.492442 0.000000 0.000000 0.000000 0.000000 0.000000 0.000000 0.000000 0.000000 0.000000 0.000000 0.000000 0.000000 0.000000 0.000000 0.000000 0.000000 0.000000 0.000000 0.000000 0.000000 87529.433843 393802.160153 385746.366576 314642.189935 308738.746038 260196.603933 245954.209655 259320.439161 267117.416923 227591.109634 214685.974435 210689.318955 194323.466790 185066.676545 165850.897791 144001.663626 157647.775404 171920.767502 147568.410268 95004.550715 47904.875860 21026.081960 8785.177214 3633.874752 1491.226332 590.437927 210.186362 50.924916 0.000000 0.000000 0.000000 0.000000 0.000000 0.000000 0.000000 0.000000 0.000000 0.000000 0.000000 0.000000 0.000000 0.000000 0.000000 0.000000 0.000000 0.000000 100336.637543 367535.508325 376288.680763 237945.764443 250463.956628 244239.893024 266518.553993 257821.890237 227140.427823 213375.549321 214871.819474 214033.462450 216890.939368 214107.691577 179022.439359 144143.436248 150977.490664 164237.700667 146032.190436 98549.068943 51535.226831 23057.914845 9686.214152 3982.296537 1601.436177 596.588997 160.726223 0.000000 0.000000 0.000000 0.000000 0.000000 0.000000 0.000000 0.000000 0.000000 0.000000 0.000000 0.000000 0.000000 0.000000 0.000000 0.000000 0.000000 0.000000 0.000000 94496.337976 362772.880386 351160.769666 265108.193719 275291.306870 245352.257794 250909.092788 241111.152220 238951.133493 224093.347714 196472.647275 189448.648492 198573.394437 192987.622020 159261.708344 128922.614399 136425.371341 152380.911570 141325.525689 99632.132250 53925.398942 24680.503071 10533.082567 4399.411549 1824.799203 749.596200 299.303839 109.263138 24.031624 0.000000 0.000000 0.000000 0.000000 0.000000 0.000000 0.000000 0.000000 0.000000 0.000000 0.000000 0.000000 0.000000 0.000000 0.000000 0.000000 0.000000 112284.162500 399025.864978 397594.729393 233786.487340 249747.417217 229245.043228 231404.946526 239652.948259 232819.400743 203181.143603 186293.686431 196323.583736 202623.851951 188850.765654 153369.459212 121472.319462 126514.980030 142923.319946 136107.134499 98724.480698 54701.105464 25396.293620 10886.999079 4518.711762 1832.533669 716.733682 259.577813 72.104742 0.000000 0.000000 0.000000 0.000000 0.000000 0.000000 0.000000 0.000000 0.000000 0.000000 0.000000 0.000000 0.000000 0.000000 0.000000 0.000000 0.000000 0.000000 105623.972722 378747.426466 359302.239467 222836.201791 240407.361444 240511.912147 241319.589117 233365.389554 210426.869730 185633.287555 180020.788815 187478.132770 186664.552116 172894.428815 141031.961807 111169.941605 116621.462080 134196.738353 130505.434809 96665.729819 54586.357033 25736.098530 11169.856383 4694.789881 1934.776833 770.782520 283.416363 76.959347 0.000000 0.000000 0.000000 0.000000 0.000000 0.000000 0.000000 0.000000 0.000000 0.000000 0.000000 0.000000 0.000000 0.000000 0.000000 0.000000 0.000000 0.000000 99768.460734 369557.744041 358969.243159 202063.125421 216481.441559 217201.592528 216017.928509 216764.395066 201712.900169 180843.538000 173887.169215 179833.113552 177588.007259 161542.307662 129601.774458 101577.881319 108020.870809 126105.164565 123956.536092 92868.030127 53158.161549 25426.350534 11214.336152 4824.040346 2078.647239 913.494029 421.655407 213.388776 121.612684 79.014248 58.490816 46.136673 36.640748 28.612664 29.148568 14.259638 49.502567 0.000000 29.346525 0.000000 0.000000 0.000000 0.000000 0.000000 0.000000 0.000000 98639.076552 364533.235751 339606.811542 188885.412652 201268.960385 211085.759022 211289.011609 212375.302352 192092.764560 166512.305356 160060.085185 168731.533254 165458.351475 146900.273454 117238.072747 93353.240133 101536.760574 119517.102415 117208.127778 87653.314579 50365.497770 24264.036973 10773.943706 4648.940865 1993.435469 858.262943 374.709333 168.791448 80.376491 40.316243 19.517046 6.291773 0.000000 0.000000 0.000000 0.000000 0.000000 0.000000 15.720367 0.000000 0.000000 0.000000 0.000000 0.000000 0.000000 0.000000 92161.443362 339337.373346 304881.765279 176980.232527 187028.392345 205259.787833 202152.387940 192916.600510 168446.687750 149933.377736 151625.809494 161280.849754 152406.050718 130456.888453 104858.043813 86234.296552 96219.225498 113464.701070 109997.556183 81444.419329 46798.865713 22775.740270 10306.585612 4592.625596 2091.219134 1012.880174 549.860757 350.632099 263.228273 221.623998 197.538108 179.101027 162.712628 146.947063 131.544320 109.107865 97.888319 40.549505 77.594418 0.000000 0.000000 0.000000 0.000000 0.000000 0.000000 0.000000 88478.279926 314866.096182 295420.265803 154156.434728 160378.182018 184045.741740 184876.142525 182195.891466 157737.227023 137273.793205 141231.383687 152282.704507 139456.967070 114354.122870 93110.919930 80141.618234 91732.866002 107230.750249 101445.496884 73554.001202 41949.714102 20504.145250 9372.544564 4229.164835 1954.416981 964.353092 536.265010 351.428017 270.226344 231.424898 208.650297 190.666599 173.023839 154.589727 136.305647 116.314381 101.541560 65.163713 86.169941 0.000000 0.000000 0.000000 0.000000 0.000000 0.000000 0.000000 88844.998812 301833.724055 241413.876125 153462.692401 156254.256961 176123.532499 168921.041191 160355.455237 140981.765747 123002.482224 124101.970697 134986.677641 123675.027206 99154.143570 82785.523912 75427.044648 88070.443726 100682.660975 91765.361867 64561.919539 36387.525247 17840.987690 8247.329433 3781.756937 1785.763004 908.761621 526.803347 361.452564 289.318835 255.365506 235.786348 220.382451 204.858274 187.660845 168.498949 146.851393 125.546514 94.553465 88.412977 0.000000 0.000000 0.000000 0.000000 0.000000 0.000000 0.000000 75371.675039 269539.025756 242419.385064 126357.357282 125746.587575 165932.633115 155247.257260 136927.813604 123669.533468 120247.820971 125067.390971 127349.394547 110714.785224 85710.086528 73514.544163 70566.907060 83043.934694 91853.198441 80022.535554 54378.476855 30215.428619 14836.256619 6915.983792 3203.212898 1527.402771 784.363707 458.600871 317.477007 256.474664 228.510627 212.918564 200.704086 188.268914 174.309173 158.188229 139.312877 118.179829 91.091920 68.513518 0.000000 0.000000 0.000000 0.000000 0.000000 0.000000 0.000000 74866.764754 241524.481456 198236.291529 133727.714210 130131.455547 154737.061400 138292.022806 120286.551826 102745.927789 90650.380096 98829.747015 102378.789909 85206.374383 65292.298882 62059.801634 65448.478048 77500.669992 82001.525591 67604.912557 44051.840037 24010.945439 11750.061773 5488.374453 2545.900964 1210.036380 612.921634 349.548707 235.669157 187.153833 165.619179 154.021522 145.058745 135.733996 124.823325 111.805934 96.325763 78.351915 56.689778 33.621692 0.000000 0.000000 0.000000 0.000000 0.000000 0.000000 0.000000 83260.749056 248002.898562 178463.386015 120748.153459 118954.995983 131509.070523 112526.680357 101110.759816 112336.060667 104704.599620 100690.185412 103152.714177 84233.150940 61343.050867 59823.011142 63280.234960 69544.627762 67734.794293 52134.634541 32438.737096 17288.493612 8380.616301 3897.493550 1806.547598 855.696472 424.888531 231.287704 146.581254 110.782774 95.383277 87.403151 81.301043 74.796959 66.955025 57.377324 45.912555 32.702971 17.962928 2.941736 0.000000 0.000000 0.000000 0.000000 0.000000 0.000000 0.000000 63020.054815 211183.147039 140846.767367 84158.957523 81373.538952 110728.939796 99843.464165 73950.410594 64076.128627 61340.415612 51493.608254 47617.030855 43399.070856 31841.426609 35669.207256 43814.348307 50286.905146 48866.458281 37449.750792 23483.555305 12671.988430 6125.206242 2775.675391 1242.243369 566.087627 263.651916 127.844445 68.750691 44.355993 34.354724 29.466672 25.833635 21.970677 17.335123 11.759153 5.326380 0.000000 0.000000 0.000000 0.000000 0.000000 0.000000 0.000000 0.000000 0.000000 0.000000 54160.869417 188985.336600 113565.876582 41323.831560 35976.421655 48646.330516 57080.460081 66556.636160 79327.004183 89940.828592 87706.709608 72700.124991 63079.243486 52737.703257 50851.468453 51191.879070 48116.853091 39958.998339 27396.617721 15230.241839 6349.044588 999.860134 0.000000 0.000000 0.000000 0.000000 0.000000 0.000000 0.000000 0.000000 0.000000 0.000000 0.000000 0.000000 0.000000 0.000000 0.000000 0.000000 0.000000 0.000000 0.000000 0.000000 0.000000 0.000000 0.000000 0.000000 58632.317657 168419.178683 0.000000 0.000000 12804.454262 12792.852156 0.000000 0.000000 0.000000 0.000000 0.000000 0.000000 0.000000 0.000000 0.000000 0.000000 0.000000 0.000000 0.000000 0.000000 0.000000 0.000000 0.000000 0.000000 0.000000 0.000000 0.000000 0.000000 0.000000 0.000000 0.000000 0.000000 0.000000 0.000000 0.000000 0.000000 0.000000 0.000000 0.000000 0.000000 0.000000 0.000000 0.000000 0.000000 0.000000 0.000000 56617.627922 155637.868935 0.000000 0.000000 0.000000 0.000000 0.000000 57988.503397 107073.423043 0.000000 0.000000 0.000000 0.000000 0.000000 40157.503705 62700.701971 0.000000 0.000000 0.000000 0.000000 0.000000 58817.911307 116989.392929 0.000000 0.000000 0.000000 0.000000 0.000000 17388.179426 62242.275791 0.000000 0.000000 0.000000 0.000000 0.000000 15908.318697 32157.298154 0.000000 0.000000 0.000000 0.000000 0.000000 28303.525012 10753.542003 0.000000 0.000000 0.000000 0.000000 0.000000 4226.526614 0.000000 0.000000 0.000000 0.000000 0.000000 0.000000 0.000000 0.000000 0.000000 0.000000 0.000000 0.000000 0.000000 0.000000 0.000000 0.000000 0.000000 0.000000 0.000000 0.000000 0.000000 0.000000 0.000000 0.000000 0.000000 0.000000 0.000000 0.000000 0.000000 0.000000 0.000000 0.000000 0.000000 0.000000 0.000000 0.000000 0.000000 0.000000 0.000000 0.000000 0.000000 0.000000 0.000000 0.000000 0.000000 0.000000 0.000000 0.000000 0.000000 0.000000 0.000000 0.000000 0.000000 0.000000 0.000000 0.000000 0.000000 0.000000 0.000000 0.000000 0.000000 0.000000 0.000000 0.000000 0.000000 0.000000 0.000000 0.000000 0.000000 0.000000 0.000000 0.000000 0.000000 0.000000 0.000000 0.000000 0.000000 0.000000 0.000000 0.000000 0.000000 0.000000 0.000000 0.000000 0.000000 0.000000 0.000000 0.000000 0.000000 0.000000 0.000000 0.000000 0.000000 0.000000 0.000000 0.000000 0.000000 0.000000 0.000000 0.000000 0.000000 0.000000 0.000000 0.000000 0.000000 0.000000 0.000000 0.000000 0.000000 0.000000 0.000000 0.000000 0.000000 0.000000 0.000000 0.000000 0.000000 0.000000 0.000000 0.000000 0.000000 0.000000 0.000000 0.000000 0.000000 0.000000 0.000000 0.000000 0.000000 0.000000 0.000000 0.000000 0.000000 0.000000 0.000000 0.000000 0.000000 0.000000 0.000000 0.000000 0.000000 0.000000 0.000000 0.000000 0.000000 0.000000 0.000000 0.000000 0.000000 0.000000 0.000000 0.000000 0.000000 0.000000 0.000000 0.000000 0.000000 0.000000 0.000000 0.000000 0.000000 0.000000 0.000000 0.000000 0.000000 0.000000 0.000000 0.000000 0.000000 0.000000 0.000000 0.000000 0.000000 0.000000 0.000000 0.000000 0.000000 0.000000 0.000000 0.000000 0.000000 0.000000 0.000000 0.000000 0.000000 0.000000 0.000000 0.000000 0.000000 0.000000 0.000000 0.000000 0.000000 0.000000 0.000000 0.000000 0.000000 0.000000 0.000000 0.000000 0.000000 0.000000 0.000000 0.000000 0.000000 0.000000 0.000000 0.000000 0.000000 0.000000 0.000000 0.000000 0.000000 0.000000 0.000000 0.000000 0.000000 0.000000 0.000000 0.000000 0.000000 0.000000 0.000000 0.000000 0.000000 0.000000 0.000000 0.000000 0.000000 0.000000 0.000000 0.000000 0.000000 0.000000 0.000000 0.000000 0.000000 0.000000 0.000000 0.000000 0.000000 0.000000 0.000000 0.000000 0.000000 0.000000 0.000000 0.000000 0.000000 0.000000 0.000000 0.000000 0.000000 0.000000 0.000000 0.000000 0.000000 0.000000 0.000000 0.000000 0.000000 0.000000 0.000000 0.000000 0.000000 0.000000 0.000000 0.000000 0.000000 0.000000 0.000000 0.000000 0.000000 0.000000 0.000000 0.000000 0.000000 0.000000 0.000000 0.000000 0.000000 0.000000 0.000000 0.000000 0.000000 0.000000 0.000000 0.000000 0.000000 0.000000 0.000000 0.000000 0.000000 0.000000 0.000000 0.000000 0.000000 0.000000 0.000000 0.000000 0.000000 0.000000 0.000000 0.000000 0.000000 0.000000 0.000000 0.000000 0.000000 0.000000 0.000000 0.000000 0.000000 0.000000 0.000000 0.000000 0.000000 0.000000 0.000000 0.000000 0.000000 0.000000 0.000000 0.000000 0.000000 0.000000 0.000000 0.000000 0.000000 0.000000 0.000000 0.000000 0.000000 0.000000 0.000000 0.000000 0.000000 0.000000 0.000000 0.000000 0.000000 0.000000 0.000000 0.000000 0.000000 0.000000 0.000000 0.000000 0.000000 0.000000 0.000000 0.000000 0.000000 0.000000 0.000000 0.000000 0.000000 0.000000 0.000000 0.000000 0.000000 0.000000 0.000000 0.000000 0.000000 0.000000 0.000000 0.000000 0.000000 0.000000 0.000000 0.000000 0.000000 0.000000 0.000000 0.000000 0.000000 0.000000 0.000000 0.000000 0.000000 0.000000 0.000000 0.000000 0.000000 0.000000 0.000000 0.000000 0.000000 0.000000 0.000000 0.000000 0.000000 0.000000 0.000000 0.000000 0.000000 0.000000 0.000000 0.000000 0.000000 0.000000 0.000000 0.000000 0.000000 0.000000 0.000000 0.000000 0.000000 0.000000 0.000000 0.000000 0.000000 0.000000 0.000000 0.000000 0.000000 0.000000 0.000000 0.000000 0.000000 0.000000 0.000000 0.000000 0.000000 0.000000 0.000000 0.000000 0.000000 0.000000 0.000000 0.000000 0.000000 0.000000 0.000000 0.000000 0.000000 0.000000 0.000000 0.000000 0.000000 0.000000 0.000000 0.000000 0.000000 0.000000 0.000000 0.000000 0.000000 0.000000 0.000000 0.000000 0.000000 0.000000 0.000000 0.000000 0.000000 0.000000 0.000000 0.000000 0.000000 0.000000 0.000000 0.000000 0.000000 0.000000 0.000000 0.000000 0.000000 0.000000 0.000000 0.000000 0.000000 0.000000 0.000000 0.000000 0.000000 0.000000 0.000000 0.000000 0.000000 0.000000 0.000000 0.000000 0.000000 0.000000 0.000000 0.000000 0.000000 0.000000 0.000000 0.000000 0.000000 0.000000 0.000000 0.000000 0.000000 0.000000 0.000000 0.000000 0.000000 0.000000 0.000000 0.000000 0.000000 0.000000 0.000000 0.000000 0.000000 0.000000 0.000000 0.000000 0.000000 0.000000 0.000000 0.000000 0.000000 0.000000 0.000000 0.000000 0.000000 0.000000 0.000000 0.000000 0.000000 0.000000 0.000000 0.000000 0.000000 0.000000 0.000000 0.000000 0.000000 0.000000 0.000000 0.000000 0.000000 0.000000 0.000000 0.000000 0.000000 0.000000 0.000000 0.000000 0.000000 0.000000 0.000000 0.000000 0.000000 0.000000 0.000000 0.000000 0.000000 0.000000 0.000000 0.000000 0.000000 0.000000 0.000000 0.000000 0.000000 0.000000 0.000000 0.000000 0.000000 0.000000 0.000000 0.000000 0.000000 0.000000 0.000000 0.000000 0.000000 0.000000 0.000000 0.000000 0.000000 0.000000 0.000000 0.000000 0.000000 0.000000 0.000000 0.000000 0.000000 0.000000 0.000000 0.000000 0.000000 0.000000 0.000000 0.000000 0.000000 0.000000 0.000000 0.000000 0.000000 0.000000 0.000000 0.000000 0.000000 0.000000 0.000000 0.000000 0.000000 0.000000 0.000000 0.000000 0.000000 0.000000 0.000000 0.000000 0.000000 0.000000 0.000000 0.000000 0.000000 0.000000 0.000000 0.000000 0.000000 0.000000 0.000000 0.000000 0.000000 0.000000 0.000000 0.000000 0.000000 0.000000 0.000000 0.000000 0.000000 0.000000 0.000000 0.000000 0.000000 0.000000 0.000000 0.000000 0.000000 0.000000 0.000000 0.000000 0.000000 0.000000 0.000000 0.000000 0.000000 0.000000 0.000000 0.000000 0.000000 0.000000 0.000000 0.000000 0.000000 0.000000 0.000000 0.000000 0.000000 0.000000 0.000000 0.000000 0.000000 0.000000 0.000000 0.000000 0.000000 0.000000 0.000000 0.000000 0.000000 0.000000 0.000000 0.000000 0.000000 0.000000 0.000000 0.000000 0.000000 0.000000 0.000000 0.000000 0.000000 0.000000
</DataArray>
<DataArray type="Float64" Name="Velocity" NumberOfComponents="3" format="ascii">