<VTKFile type="PolyData">
<PolyData>
<Piece NumberOfPoints="1840" NumberOfVerts="1840" NumberOfLines="0" NumberOfStrips="0" NumberOfPolys="0">
<PointData>
<DataArray type="Float64" Name="Pressure" format="ascii">
 0.000000 0.000000 0.000000 0.000000 0.000000 0.000000 0.000000 0.000000 0.000000 0.000000 0.000000 0.000000 0.000000 0.000000 0.000000 0.000000 0.000000 0.000000 0.000000 0.000000 0.000000 0.000000 0.000000 0.000000 0.000000 0.000000 0.000000 0.000000 0.000000 0.000000 0.000000 0.000000 0.000000 0.000000 0.000000 0.000000 0.000000 0.000000 0.000000 0.000000 0.000000 0.000000 0.000000 0.000000 0.000000 0.000000 0.000000 0.000000 0.000000 0.000000 0.000000 0.000000 0.000000 0.000000 0.000000 0.000000 0.000000 0.000000 0.000000 0.000000 0.000000 0.000000 0.000000 0.000000 0.000000 0.000000 0.000000 0.000000 0.000000 0.000000 0.000000 0.000000 0.000000 0.000000 0.000000 0.000000 0.000000 0.000000 0.000000 0.000000 0.000000 0.000000 0.000000 0.000000 0.000000 0.000000 0.000000 0.000000 0.000000 0.000000 0.000000 0.000000 0.000000 0.000000 0.000000 0.000000 0.000000 0.000000 0.000000 0.000000 0.000000 0.000000 0.000000 0.000000 0.000000 0.000000 0.000000 0.000000 0.000000 0.000000 0.000000 0.000000 0.000000 0.000000 0.000000 0.000000 23817.490315 79760.112334 80401.736352 65661.429247 46973.129855 33511.321085 16931.053085 14999.913393 16840.414642 18969.686325 20778.883051 19385.016191 12248.791237 5489.910377 2119.345855 771.189606 258.524031 58.916590 0.000000 0.000000 0.000000 0.000000 0.000000 0.000000 0.000000 0.000000 0.000000 0.000000 0.000000 0.000000 0.000000 0.000000 0.000000 0.000000 0.000000 0.000000 0.000000 0.000000 0.000000 0.000000 0.000000 0.000000 0.000000 0.000000 0.000000 0.000000 0.000000 0.000000 0.000000 0.000000 0.000000 0.000000 0.000000 0.000000 0.000000 0.000000 0.000000 93015.880789 376683.111671 307776.760052 273054.682611 265104.617964 249037.761886 198019.876286 193015.854838 198182.693396 209186.904350 235329.786661 240494.270205 160987.409903 73346.540469 28739.041788 11183.063069 4494.503330 1843.660258 754.608141 304.995460 135.550777 84.396068 72.763929 69.815307 67.017776 61.559943 50.734618 29.083991 0.000000 0.000000 0.000000 0.000000 0.000000 0.000000 0.000000 0.000000 0.000000 0.000000 0.000000 0.000000 0.000000 0.000000 0.000000 0.000000 0.000000 0.000000 0.000000 0.000000 0.000000 0.000000 0.000000 0.000000 0.000000 0.000000 0.000000 0.000000 0.000000 110424.973541 398690.478114 376683.111671 300544.448694 288337.270826 286108.002572 298013.724361 279059.627461 294992.402412 314126.546072 306589.225804 259095.919089 238834.646585 259891.815573 308804.316210 316218.806557 254167.743921 161001.037913 81021.495722 35257.188589 14664.640877 6088.692965 2574.612425 1108.269236 492.572716 256.621587 182.791697 164.008973 156.820494 147.862801 133.683532 115.474448 76.768754 0.000000 0.000000 0.000000 0.000000 0.000000 0.000000 0.000000 0.000000 0.000000 0.000000 0.000000 0.000000 0.000000 107057.359367 355493.351475 375694.393209 286204.434522 323631.064528 279312.981706 261743.147917 215235.316906 204431.671322 209275.893616 218307.534210 210029.921196 182289.148090 142469.720699 140193.097892 161664.000996 171263.726476 139989.212887 83511.794483 39793.674198 17154.516253 7181.275028 2993.680103 1200.426603 396.271441 40.894962 0.000000 0.000000 0.000000 0.000000 0.000000 0.000000 0.000000 0.000000 0.000000 0.000000 0.000000 0.000000 0.000000 0.000000 0.000000 0.000000 0.000000 0.000000 0.000000 0.000000 89796.185557 359589.785641 349384.147042 222679.656744 223847.907974 261655.457018 296929.665745 271817.471154 247503.418854 214132.649257 215994.928334 254251.034141 245126.617136 204167.593384 191373.829830 186929.518889 182945.274586 152011.774130 95181.519402 47361.167167 20889.941162 8786.095670 3617.541220 1404.639600 426.799904 0.000000 0.000000 0.000000 0.000000 0.000000 0.000000 0.000000 0.000000 0.000000 0.000000 0.000000 0.000000 0.000000 0.000000 0.000000 0.000000 0.000000 0.000000 0.000000 0.000000 0.000000 84472.627124 395607.735253 377828.222936 301165.565183 296556.047417 255157.457592 254030.923653 258589.800165 250908.681169 204076.826867 200322.907417 212564.511145 185918.348331 155781.031504 149411.348575 150984.786039 161367.117911 147103.504695 99642.119960 52489.771114 23888.497066 10198.341781 4272.822275 1776.543075 717.728770 266.959760 81.483227 6.666906 0.000000 0.000000 0.000000 0.000000 0.000000 0.000000 0.000000 0.000000 0.000000 0.000000 0.000000 0.000000 0.000000 0.000000 0.000000 0.000000 0.000000 0.000000 96165.728989 388428.792158 396984.893563 254587.801828 262960.261739 233880.272072 263603.495780 257567.456304 212818.644295 192256.277121 217266.511367 230440.432957 203894.509211 172142.921660 152286.819248 144213.491660 154480.925344 145752.220601 103239.012886 56493.134007 26244.153878 11261.820396 4689.333176 1919.887301 748.427615 238.667911 13.153260 0.000000 0.000000 0.000000 0.000000 0.000000 0.000000 0.000000 0.000000 0.000000 0.000000 0.000000 0.000000 0.000000 0.000000 0.000000 0.000000 0.000000 0.000000 0.000000 89535.201455 362892.972774 347009.726663 250182.428517 261834.882711 247738.542308 266025.210452 239167.944014 205531.083883 192265.542027 196515.788504 201288.483875 184984.613767 155992.432878 135439.363414 129474.585421 143505.529707 141151.467359 104395.618056 59208.370957 28150.696628 12270.428787 5189.265382 2175.999001 903.774843 364.536091 137.092752 41.976586 0.000000 0.000000 0.000000 0.000000 0.000000 0.000000 0.000000 0.000000 0.000000 0.000000 0.000000 0.000000 0.000000 0.000000 0.000000 0.000000 0.000000 0.000000 101670.884202 385193.561759 380528.691989 215609.941974 233533.774690 221094.549850 230728.124707 229437.463299 208935.486954 186633.078865 189827.186154 203960.651239 186098.848074 149685.752682 126699.792557 120287.526259 134777.626703 135933.853056 103584.695452 60229.126139 29063.982662 12741.686657 5372.854302 2217.244397 887.487432 334.556700 108.666864 16.383063 0.000000 0.000000 0.000000 0.000000 0.000000 0.000000 0.000000 0.000000 0.000000 0.000000 0.000000 0.000000 0.000000 0.000000 0.000000 0.000000 0.000000 0.000000 92886.519534 365023.121718 342075.754618 207937.167619 227143.268395 233565.785691 243174.150855 227167.525774 189758.025309 165946.338880 178169.698539 193924.886109 172142.376921 136100.627935 116055.032289 111322.675530 126812.460166 130650.377521 101782.846751 60344.495502 29541.660242 13091.109669 5576.707244 2331.848335 950.767667 365.678488 119.454014 14.818221 0.000000 0.000000 0.000000 0.000000 0.000000 0.000000 0.000000 0.000000 0.000000 0.000000 0.000000 0.000000 0.000000 0.000000 0.000000 0.000000 0.000000 0.000000 83908.482358 343731.778266 328483.002998 194532.801665 210914.083660 214028.570387 217358.815545 205716.998162 178598.042100 162840.879826 173657.665498 184285.815741 160081.825483 124775.049908 106635.607956 103389.445356 119485.389622 124720.830460 98384.427159 59111.631511 29349.694469 13219.773196 5772.559412 2531.704523 1144.622558 553.449507 302.511826 195.229008 146.494919 121.265244 105.706257 92.974257 80.837571 69.677327 65.558951 50.466748 71.111822 0.000000 49.788914 0.000000 0.000000 0.000000 0.000000 0.000000 0.000000 0.000000 81507.746940 336132.647485 308581.790684 181882.673929 196809.376989 203955.910663 204124.120541 193810.853698 168623.384154 153022.312036 161352.339922 170423.711394 146828.848978 113261.910766 98160.632211 97335.763793 113583.521031 118550.525012 93408.437027 56263.970275 28109.093449 12743.074958 5586.551207 2446.579248 1093.146220 513.388707 265.870150 159.607723 112.085017 87.566853 71.402588 57.973314 45.264029 31.285784 18.374390 2.308201 13.044173 0.000000 38.684108 0.000000 0.000000 0.000000 0.000000 0.000000 0.000000 0.000000 76182.207431 308551.036931 280012.755363 169109.015497 182562.877109 198341.202482 195478.362109 179119.356307 151155.445561 138947.706476 150363.637545 159222.068059 134239.911997 101587.922093 90345.166603 92546.797277 108460.817645 111983.597180 87320.028967 52469.029490 26398.045523 12145.689500 5456.047610 2494.415633 1207.426255 652.703319 414.841276 312.422373 266.357654 242.169564 225.161674 209.342078 193.198177 176.005215 157.484546 133.260696 115.401354 65.664571 90.628055 0.000000 0.000000 0.000000 0.000000 0.000000 0.000000 0.000000 75196.806466 294082.687124 270427.105755 153141.361212 163229.549401 178111.228636 173706.758610 165350.387234 143823.041176 131326.276290 139175.719132 145928.039135 121379.545938 90655.234970 83376.101281 88443.574410 103153.336929 104052.688964 79424.802766 47252.283030 23817.874342 11050.770282 5017.181074 2321.124166 1138.845811 625.376697 404.434242 309.664058 267.615777 245.985039 230.911266 216.532974 200.677306 182.990462 164.159967 143.017879 123.428080 89.186048 92.886202 0.000000 0.000000 0.000000 0.000000 0.000000 0.000000 0.000000 74638.627350 278367.761845 223661.699035 150683.057155 158205.176959 172521.981622 156991.863706 140514.590376 126974.005233 121601.834812 125132.993313 127688.078183 106708.133962 80899.575482 77937.426799 85203.843221 97531.226682 94892.416820 70226.487337 41132.295279 20727.887072 9689.951168 4444.468740 2078.575091 1030.908962 572.720388 375.005747 290.618911 253.977689 235.850397 223.729838 212.292561 199.298811 183.985162 166.268193 145.918140 124.393497 95.932961 79.415451 0.000000 0.000000 0.000000 0.000000 0.000000 0.000000 0.000000 65905.257685 243743.510704 228606.409824 121675.236280 125814.406573 159344.468331 145280.481908 126716.028391 116634.557546 119280.706575 123407.019839 117471.340081 94390.518389 71638.367029 72318.381543 80789.029380 89724.113973 83481.887388 59609.312985 34300.889494 17255.883616 8113.015266 3745.104787 1756.200438 866.860751 475.065028 305.751418 234.163592 203.875621 189.625324 180.570025 172.080883 162.304846 150.538830 136.338937 119.264320 99.438671 74.858830 50.147446 0.000000 0.000000 0.000000 0.000000 0.000000 0.000000 0.000000 71620.328177 231876.727326 187504.503156 134078.568856 133640.735804 143587.706343 120592.626552 106998.979880 99883.577296 92856.428301 94965.629910 91917.275637 74360.190094 58871.318448 65539.841814 75823.359652 80995.228359 71275.381700 48752.706120 27423.220509 13705.724564 6447.210826 2974.953102 1385.102504 668.627580 349.742183 211.290866 153.465315 129.851768 119.374809 113.021268 107.103601 100.129516 91.439653 80.684399 67.621872 52.258806 34.328240 15.231760 0.000000 0.000000 0.000000 0.000000 0.000000 0.000000 0.000000 72855.685741 236924.790242 176163.376082 109378.370291 107340.380875 127496.294383 107207.702769 94497.252135 111752.235916 110321.573063 95528.552639 87417.288148 72938.386622 57515.775070 62800.457106 69411.691928 68212.498404 55691.616659 36263.623712 19876.939327 9817.818254 4591.061186 2112.466883 979.136709 462.272235 226.825813 122.110121 78.126886 60.720743 53.521280 49.443892 45.709436 41.242939 35.599675 28.602163 20.246512 10.785066 0.783318 0.000000 0.000000 0.000000 0.000000 0.000000 0.000000 0.000000 0.000000 53875.466522 189550.450994 135969.072531 87058.701874 86281.751986 107468.328347 92844.777866 66037.260187 57506.269979 59591.433266 50631.431669 40818.688028 38749.742272 33927.647976 41608.189607 49704.630652 49305.804140 39993.037879 26239.065221 14603.698753 7229.798556 3307.120211 1468.446640 655.292492 291.500844 126.450179 53.229395 22.947040 11.510738 7.201232 5.018671 3.129793 0.920025 0.000000 0.000000 0.000000 0.000000 0.000000 0.000000 0.000000 0.000000 0.000000 0.000000 0.000000 0.000000 0.000000 60237.004307 183966.171482 114762.734010 38193.076316 34677.108459 53073.463156 63454.808724 77384.866228 85683.918508 87442.763002 81269.901911 64650.034061 57611.116046 51562.673677 50791.009409 49332.495260 41851.023404 30124.058655 17686.468920 8017.135077 1943.074766 0.000000 0.000000 0.000000 0.000000 0.000000 0.000000 0.000000 0.000000 0.000000 0.000000 0.000000 0.000000 0.000000 0.000000 0.000000 0.000000 0.000000 0.000000 0.000000 0.000000 0.000000 0.000000 0.000000 0.000000 0.000000 59251.065068 162644.722575 0.000000 0.000000 12658.831153 0.000000 0.000000 0.000000 0.000000 0.000000 0.000000 0.000000 0.000000 0.000000 0.000000 0.000000 0.000000 0.000000 0.000000 0.000000 0.000000 0.000000 0.000000 0.000000 0.000000 0.000000 0.000000 0.000000 0.000000 0.000000 0.000000 0.000000 0.000000 0.000000 0.000000 0.000000 0.000000 0.000000 0.000000 0.000000 0.000000 0.000000 0.000000 0.000000 0.000000 0.000000 60065.016620 164395.297927 0.000000 0.000000 0.000000 0.000000 0.000000 40943.373420 67519.162545 0.000000 0.000000 0.000000 0.000000 0.000000 54851.518076 90003.793560 0.000000 0.000000 0.000000 0.000000 0.000000 46180.414086 99250.773500 0.000000 0.000000 0.000000 0.000000 0.000000 11822.603768 47112.058726 0.000000 0.000000 0.000000 0.000000 0.000000 27477.788799 33833.223268 0.000000 0.000000 0.000000 0.000000 0.000000 18839.951647 0.000000 0.000000 0.000000 0.000000 0.000000 0.000000 0.000000 0.000000 0.000000 0.000000 0.000000 0.000000 0.000000 0.000000 0.000000 0.000000 0.000000 0.000000 0.000000 0.000000 0.000000 0.000000 0.000000 0.000000 0.000000 0.000000 0.000000 0.000000 0.000000 0.000000 0.000000 0.000000 0.000000 0.000000 0.000000 0.000000 0.000000 0.000000 0.000000 0.000000 0.000000 0.000000 0.000000 0.000000 0.000000 0.000000 0.000000 0.000000 0.000000 0.000000 0.000000 0.000000 0.000000 0.000000 0.000000 0.000000 0.000000 0.000000 0.000000 0.000000 0.000000 0.000000 0.000000 0.000000 0.000000 0.000000 0.000000 0.000000 0.000000 0.000000 0.000000 0.000000 0.000000 0.000000 0.000000 0.000000 0.000000 0.000000 0.000000 0.000000 0.000000 0.000000 0.000000 0.000000 0.000000 0.000000 0.000000 0.000000 0.000000 0.000000 0.000000 0.000000 0.000000 0.000000 0.000000 0.000000 0.000000 0.000000 0.000000 0.000000 0.000000 0.000000 0.000000 0.000000 0.000000 0.000000 0.000000 0.000000 0.000000 0.000000 0.000000 0.000000 0.000000 0.000000 0.000000 0.000000 0.000000 0.000000 0.000000 0.000000 0.000000 0.000000 0.000000 0.000000 0.000000 0.000000 0.000000 0.000000 0.000000 0.000000 0.000000 0.000000 0.000000 0.000000 0.000000 0.000000 0.000000 0.000000 0.000000 0.000000 0.000000 0.000000 0.000000 0.000000 0.000000 0.000000 0.000000 0.000000 0.000000 0.000000 0.000000 0.000000 0.000000 0.000000 0.000000 0.000000 0.000000 0.000000 0.000000 0.000000 0.000000 0.000000 0.000000 0.000000 0.000000 0.000000 0.000000 0.000000 0.000000 0.000000 0.000000 0.000000 0.000000 0.000000 0.000000 0.000000 0.000000 0.000000 0.000000 0.000000 0.000000 0.000000 0.000000 0.000000 0.000000 0.000000 0.000000 0.000000 0.000000 0.000000 0.000000 0.000000 0.000000 0.000000 0.000000 0.000000 0.000000 0.000000 0.000000 0.000000 0.000000 0.000000 0.000000 0.000000 0.000000 0.000000 0.000000 0.000000 0.000000 0.000000 0.000000 0.000000 0.000000 0.000000 0.000000 0.000000 0.000000 0.000000 0.000000 0.000000 0.000000 0.000000 0.000000 0.000000 0.000000 0.000000 0.000000 0.000000 0.000000 0.000000 0.000000 0.000000 0.000000 0.000000 0.000000 0.000000 0.000000 0.000000 0.000000 0.000000 0.000000 0.000000 0.000000 0.000000 0.000000 0.000000 0.000000 0.000000 0.000000 0.000000 0.000000 0.000000 0.000000 0.000000 0.000000 0.000000 0.000000 0.000000 0.000000 0.000000 0.000000 0.000000 0.000000 0.000000 0.000000 0.000000 0.000000 0.000000 0.000000 0.000000 0.000000 0.000000 0.000000 0.000000 0.000000 0.000000 0.000000 0.000000 0.000000 0.000000 0.000000 0.000000 0.000000 0.000000 0.000000 0.000000 0.000000 0.000000 0.000000 0.000000 0.000000 0.000000 0.000000 0.000000 0.000000 0.000000 0.000000 0.000000 0.000000 0.000000 0.000000 0.000000 0.000000 0.000000 0.000000 0.000000 0.000000 0.000000 0.000000 0.000000 0.000000 0.000000 0.000000 0.000000 0.000000 0.000000 0.000000 0.000000 0.000000 0.000000 0.000000 0.000000 0.000000 0.000000 0.000000 0.000000 0.000000 0.000000 0.000000 0.000000 0.000000 0.000000 0.000000 0.000000 0.000000 0.000000 0.000000 0.000000 0.000000 0.000000 0.000000 0.000000 0.000000 0.000000 0.000000 0.000000 0.000000 0.000000 0.000000 0.000000 0.000000 0.000000 0.000000 0.000000 0.000000 0.000000 0.000000 0.000000 0.000000 0.000000 0.000000 0.000000 0.000000 0.000000 0.000000 0.000000 0.000000 0.000000 0.000000 0.000000 0.000000 0.000000 0.000000 0.000000 0.000000 0.000000 0.000000 0.000000 0.000000 0.000000 0.000000 0.000000 0.000000 0.000000 0.000000 0.000000 0.000000 0.000000 0.000000 0.000000 0.000000 0.000000 0.000000 0.000000 0.000000 0.000000 0.000000 0.000000 0.000000 0.000000 0.000000 0.000000 0.000000 0.000000 0.000000 0.000000 0.000000 0.000000 0.000000 0.000000 0.000000 0.000000 0.000000 0.000000 0.000000 0.000000 0.000000 0.000000 0.000000 0.000000 0.000000 0.000000 0.000000 0.000000 0.000000 0.000000 0.000000 0.000000 0.000000 0.000000 0.000000 0.000000 0.000000 0.000000 0.000000 0.000000 0.000000 0.000000 0.000000 0.000000 0.000000 0.000000 0.000000 0.000000 0.000000 0.000000 0.000000 0.000000 0.000000 0.000000 0.000000 0.000000 0.000000 0.000000 0.000000 0.000000 0.000000 0.000000 0.000000 0.000000 0.000000 0.000000 0.000000 0.000000 0.000000 0.000000 0.000000 0.000000 0.000000 0.000000 0.000000 0.000000 0.000000 0.000000 0.000000 0.000000 0.000000 0.000000 0.000000 0.000000 0.000000 0.000000 0.000000 0.000000 0.000000 0.000000 0.000000 0.000000 0.000000 0.000000 0.000000 0.000000 0.000000 0.000000 0.000000 0.000000 0.000000 0.000000 0.000000 0.000000 0.000000 0.000000 0.000000 0.000000 0.000000 0.000000 0.000000 0.000000 0.000000 0.000000 0.000000 0.000000 0.000000 0.000000 0.000000 0.000000 0.000000 0.000000 0.000000 0.000000 0.000000 0.000000 0.000000 0.000000 0.000000 0.000000 0.000000 0.000000 0.000000 0.000000 0.000000 0.000000 0.000000 0.000000 0.000000 0.000000 0.000000 0.000000 0.000000 0.000000 0.000000 0.000000 0.000000 0.000000 0.000000 0.000000 0.000000 0.000000 0.000000 0.000000 0.000000 0.000000 0.000000 0.000000 0.000000 0.000000 0.000000 0.000000 0.000000 0.000000 0.000000 0.000000 0.000000 0.000000 0.000000 0.000000 0.000000 0.000000 0.000000 0.000000 0.000000 0.000000 0.000000 0.000000 0.000000 0.000000 0.000000 0.000000 0.000000 0.000000 0.000000 0.000000 0.000000 0.000000 0.000000 0.000000 0.000000 0.000000 0.000000 0.000000 0.000000 0.000000 0.000000 0.000000 0.000000 0.000000 0.000000 0.000000 0.000000 0.000000 0.000000 0.000000 0.000000 0.000000 0.000000 0.000000 0.000000 0.000000 0.000000 0.000000 0.000000 0.000000 0.000000 0.000000 0.000000 0.000000 0.000000 0.000000 0.000000 0.000000 0.000000 0.000000 0.000000 0.000000 0.000000 0.000000 0.000000 0.000000 0.000000 0.000000 0.000000 0.000000 0.000000 0.000000 0.000000 0.000000 0.000000 0.000000 0.000000 0.000000 0.000000 0.000000 0.000000 0.000000 0.000000 0.000000 0.000000 0.000000 0.000000 0.000000 0.000000 0.000000 0.000000 0.000000 0.000000 0.000000 0.000000 0.000000 0.000000 0.000000 0.000000 0.000000 0.000000 0.000000 0.000000 0.000000 0.000000 0.000000 0.000000 0.000000 0.000000 0.000000 0.000000 0.000000 0.000000 0.000000 0.000000 0.000000 0.000000 0.000000 0.000000 0.000000 0.000000 0.000000 0.000000 0.000000 0.000000 0.000000 0.000000 0.000000 0.000000 0.000000 0.000000
</DataArray>
<DataArray type="Float64" Name="Velocity" NumberOfComponents="3" format="ascii">