<VTKFile type="PolyData">
<PolyData>
<Piece NumberOfPoints="1840" NumberOfVerts="1840" NumberOfLines="0" NumberOfStrips="0" NumberOfPolys="0">
<PointData>
<DataArray type="Float64" Name="Pressure" format="ascii">
 0.000000 0.000000 0.000000 0.000000 0.000000 0.000000 0.000000 0.000000 0.000000 0.000000 0.000000 0.000000 0.000000 0.000000 0.000000 0.000000 0.000000 0.000000 0.000000 0.000000 0.000000 0.000000 0.000000 0.000000 0.000000 0.000000 0.000000 0.000000 0.000000 0.000000 0.000000 0.000000 0.000000 0.000000 0.000000 0.000000 0.000000 0.000000 0.000000 0.000000 0.000000 0.000000 0.000000 0.000000 0.000000 0.000000 0.000000 0.000000 0.000000 0.000000 0.000000 0.000000 0.000000 0.000000 0.000000 0.000000 0.000000 0.000000 0.000000 0.000000 0.000000 0.000000 0.000000 0.000000 0.000000 0.000000 0.000000 0.000000 0.000000 0.000000 0.000000 0.000000 0.000000 0.000000 0.000000 0.000000 0.000000 0.000000 0.000000 0.000000 0.000000 0.000000 0.000000 0.000000 0.000000 0.000000 0.000000 0.000000 0.000000 0.000000 0.000000 0.000000 0.000000 0.000000 0.000000 0.000000 0.000000 0.000000 0.000000 0.000000 0.000000 0.000000 0.000000 0.000000 0.000000 0.000000 0.000000 0.000000 0.000000 0.000000 0.000000 0.000000 0.000000 0.000000 0.000000 0.000000 104.013669 1102.542673 8959.738191 19661.064058 2957.206886 0.000000 2035.654751 0.000000 0.000000 0.000000 0.000000 0.000000 0.000000 0.000000 0.000000 0.000000 0.000000 0.000000 0.000000 0.000000 0.000000 0.000000 0.000000 0.000000 0.000000 0.000000 0.000000 0.000000 0.000000 0.000000 0.000000 0.000000 0.000000 0.000000 0.000000 0.000000 0.000000 0.000000 0.000000 0.000000 0.000000 0.000000 0.000000 0.000000 0.000000 0.000000 0.000000 0.000000 0.000000 0.000000 0.000000 0.000000 0.000000 0.000000 0.000000 0.000000 0.000000 14295.487938 27827.874081 13192.415382 38542.441557 0.000000 0.000000 0.000000 0.000000 0.000000 0.000000 0.000000 0.000000 0.000000 0.000000 0.000000 0.000000 0.000000 0.000000 0.000000 0.000000 0.000000 0.000000 0.000000 0.000000 0.000000 0.000000 0.000000 0.000000 0.000000 0.000000 0.000000 0.000000 0.000000 0.000000 0.000000 0.000000 0.000000 0.000000 0.000000 0.000000 0.000000 0.000000 0.000000 0.000000 0.000000 0.000000 0.000000 0.000000 0.000000 0.000000 0.000000 0.000000 0.000000 0.000000 0.000000 0.000000 0.000000 49723.881213 82906.046442 0.000000 0.000000 0.000000 0.000000 1122.797538 0.000000 0.000000 0.000000 0.000000 0.000000 8609.684907 34549.196055 0.000000 0.000000 56850.507775 3765.792663 24293.941152 0.000000 0.000000 6587.163964 5233.304097 0.000000 23149.666111 53588.362665 0.000000 74567.296473 0.000000 35855.357640 51655.018085 48048.767202 0.000000 0.000000 14141.678427 83736.522181 0.000000 0.000000 43781.836611 133804.487377 0.000000 0.000000 0.000000 0.000000 0.000000 0.000000 25546.961676 66423.338225 44433.728363 0.000000 111944.075906 61891.577287 9838.792887 0.000000 88534.572773 3515.678064 16589.303329 69580.345990 81699.993513 0.000000 0.000000 36557.661617 0.000000 0.000000 0.000000 0.000000 4160.492331 0.000000 0.000000 0.000000 0.000000 11722.409895 0.000000 27473.733019 0.000000 0.000000 49208.880166 0.000000 99336.595756 22870.429141 0.000000 22871.386129 91465.149131 0.000000 79388.952815 0.000000 43435.875379 0.000000 0.000000 0.000000 0.000000 0.000000 6968.029065 58559.551306 35983.888910 0.000000 0.000000 0.000000 0.000000 0.000000 0.000000 17095.598387 0.000000 0.000000 14672.818347 0.000000 0.000000 0.000000 72681.035304 12048.016625 112581.469361 28367.395286 62605.912713 86265.963595 0.000000 17392.806372 0.000000 0.000000 81210.571581 0.000000 25782.605696 0.000000 0.000000 55052.771158 255.776550 12344.541865 3612.062841 77404.641027 22701.088473 0.000000 17317.106753 0.000000 121286.420370 0.000000 0.000000 0.000000 0.000000 0.000000 7776.071795 71028.679973 0.000000 76334.428441 0.000000 61039.856437 113641.299683 0.000000 168827.618446 0.000000 33056.752312 8488.091525 55640.269029 0.000000 1257.769459 0.000000 30283.895308 222867.098077 13858.806372 0.000000 125530.341391 0.000000 0.000000 0.000000 60442.373567 11928.277853 0.000000 0.000000 48930.090182 0.000000 33629.580969 54259.679825 0.000000 83140.212404 0.000000 34368.104306 104959.577809 29667.599271 74155.967733 22044.441552 38906.072778 0.000000 0.000000 0.000000 0.000000 0.000000 15413.471265 142830.279180 218014.751958 107674.057263 0.000000 0.000000 0.000000 35214.129105 0.000000 0.000000 0.000000 30367.727993 0.000000 63703.224894 301479.843742 121610.979859 36896.776448 20625.990299 0.000000 0.000000 24621.834918 21548.493533 0.000000 0.000000 0.000000 174930.201800 17154.939084 118677.000726 0.000000 10953.145972 26255.890968 0.000000 112173.190468 0.000000 0.000000 0.000000 0.000000 88426.556182 0.000000 10351.463977 0.000000 0.000000 0.000000 0.000000 0.000000 0.000000 28339.014180 155324.768234 90925.411338 0.000000 562049.971357 0.000000 0.000000 0.000000 60630.934125 0.000000 0.000000 0.000000 0.000000 0.000000 0.000000 0.000000 0.000000 0.000000 351761.852402 0.000000 0.000000 62505.863455 3437.225196 0.000000 0.000000 0.000000 15695.486049 0.000000 218207.324915 0.000000 99743.305342 0.000000 1531.788558 0.000000 236931.597167 0.000000 0.000000 73896.791147 0.000000 133160.568173 30741.357881 0.000000 0.000000 0.000000 0.000000 0.000000 30196.056495 84922.878403 0.000000 0.000000 0.000000 0.000000 0.000000 62474.026645 34614.289722 0.000000 0.000000 29869.891060 0.000000 0.000000 0.000000 0.000000 0.000000 0.000000 0.000000 0.000000 45664.077730 0.000000 0.000000 0.000000 0.000000 90382.166855 0.000000 12423.711011 0.000000 0.000000 0.000000 0.000000 12604.195823 0.000000 0.000000 119472.795907 0.000000 0.000000 0.000000 0.000000 0.000000 0.000000 0.000000 0.000000 0.000000 0.000000 9131.327344 28478.202531 95001.064174 140993.872490 64386.584737 0.000000 71224.951310 0.000000 91338.298561 104737.600859 223812.008176 0.000000 0.000000 47342.806111 0.000000 137981.388794 0.000000 0.000000 10868.966749 281173.382499 0.000000 1295.099309 302866.424489 0.000000 49672.774384 0.000000 0.000000 89309.631046 84712.699555 0.000000 110513.788844 83214.345340 0.000000 0.000000 0.000000 0.000000 0.000000 0.000000 42517.182147 0.000000 0.000000 0.000000 0.000000 0.000000 0.000000 0.000000 14965.026173 75272.640907 0.000000 46139.947884 0.000000 0.000000 201990.108117 63459.468328 310530.519664 7902.863380 74599.337838 0.000000 0.000000 0.000000 0.000000 0.000000 0.000000 0.000000 5124.018297 16930.724056 1382712.435856 0.000000 0.000000 0.000000 0.000000 0.000000 0.000000 0.000000 0.000000 283705.302567 0.000000 0.000000 0.000000 0.000000 17846.006448 76513.735277 0.000000 50281.244585 0.000000 0.000000 0.000000 0.000000 0.000000 0.000000 0.000000 0.000000 37525.195122 106142.992287 0.000000 0.000000 987290.601709 0.000000 0.000000 260036.589906 0.000000 293589.702478 0.000000 0.000000 0.000000 136011.978516 0.000000 94373.789845 0.000000 46392.117458 0.000000 0.000000 15099.099720 0.000000 0.000000 368246.074920 643523.016406 0.000000 0.000000 0.000000 11205.818105 0.000000 438088.560802 862683.890767 0.000000 0.000000 0.000000 0.000000 107219.653566 20116.868713 54115.003557 65830.959287 0.000000 0.000000 0.000000 0.000000 0.000000 0.000000 25836.728226 39381.858942 0.000000 0.000000 0.000000 0.000000 0.000000 0.000000 0.000000 0.000000 0.000000 0.000000 0.000000 0.000000 0.000000 0.000000 0.000000 0.000000 47137.887171 81728.739971 0.000000 941.358067 41459.708628 0.000000 83098.197586 0.000000 0.000000 0.000000 0.000000 0.000000 0.000000 0.000000 0.000000 0.000000 41.008486 0.000000 0.000000 0.000000 259.265335 15370.124086 241993.719667 0.000000 0.000000 0.000000 0.000000 0.000000 1877.847209 0.000000 0.000000 0.000000 0.000000 0.000000 0.000000 0.000000 0.000000 0.000000 0.000000 0.000000 62845.131144 62980.619926 0.000000 0.000000 0.000000 0.000000 0.000000 0.000000 17983.850508 161871.290029 149407.829643 0.000000 0.000000 5923.930443 0.000000 75328.941521 0.000000 0.000000 0.000000 0.000000 0.000000 0.000000 0.000000 0.000000 168140.704223 0.000000 0.000000 19168.340793 8531.568145 0.000000 0.000000 0.000000 0.000000 0.000000 13341.967080 18825.834132 0.000000 0.000000 0.000000 0.000000 51074.817402 0.000000 0.000000 0.000000 0.000000 0.000000 250392.367707 160946.974960 0.000000 0.000000 725633.828331 0.000000 0.000000 0.000000 1879.993296 0.000000 0.000000 0.000000 0.000000 0.000000 0.000000 0.000000 0.000000 0.000000 128811.747854 0.000000 0.000000 164580.691453 0.000000 0.000000 508163.427885 16673.846565 237309.360205 0.000000 0.000000 0.000000 0.000000 0.000000 0.000000 0.000000 38130.928020 116404.898702 0.000000 0.000000 0.000000 0.000000 0.000000 101083.769335 0.000000 0.000000 0.000000 0.000000 0.000000 0.000000 0.000000 0.000000 0.000000 0.000000 303058.009135 0.000000 0.000000 0.000000 0.000000 0.000000 0.000000 0.000000 483326.183337 0.000000 0.000000 0.000000 185407.003199 0.000000 0.000000 0.000000 37236.473615 0.000000 0.000000 20434.010447 0.000000 1661.716131 0.000000 0.000000 0.000000 0.000000 0.000000 0.000000 32645.151780 136817.860652 0.000000 0.000000 0.000000 0.000000 0.000000 0.000000 0.000000 0.000000 314083.564711 0.000000 0.000000 0.000000 0.000000 0.000000 0.000000 0.000000 107409.588252 0.000000 0.000000 0.000000 45239.163768 0.000000 0.000000 0.000000 0.000000 0.000000 0.000000 0.000000 96684.860352 0.000000 0.000000 0.000000 241902.731159 64420.023767 115680.776749 0.000000 63495.448772 3325.350502 564670.840468 0.000000 0.000000 0.000000 0.000000 0.000000 20847.243986 38129.434908 0.000000 0.000000 0.000000 0.000000 0.000000 0.000000 0.000000 0.000000 0.000000 0.000000 0.000000 0.000000 0.000000 0.000000 0.000000 0.000000 0.000000 0.000000 0.000000 0.000000 0.000000 0.000000 0.000000 0.000000 0.000000 0.000000 0.000000 0.000000 0.000000 0.000000 0.000000 0.000000 0.000000 58567.181309 0.000000 0.000000 3984.783549 0.000000 152741.866046 0.000000 0.000000 0.000000 0.000000 0.000000 58420.969499 77063.729620 40924.709703 0.000000 0.000000 0.000000 0.000000 0.000000 0.000000 0.000000 416503.278379 0.000000 0.000000 207003.394157 0.000000 0.000000 0.000000 25508.968582 0.000000 0.000000 0.000000 0.000000 0.000000 0.000000 0.000000 0.000000 0.000000 0.000000 0.000000 0.000000 0.000000 0.000000 0.000000 0.000000 0.000000 0.000000 107269.718001 263197.051841 37408.141923 0.000000 0.000000 0.000000 0.000000 0.000000 0.000000 0.000000 43547.927271 110858.863217 0.000000 0.000000 0.000000 405899.879684 0.000000 0.000000 2957.014079 62700.834562 0.000000 0.000000 82353.594951 0.000000 0.000000 281180.001743 0.000000 0.000000 0.000000 0.000000 0.000000 0.000000 0.000000 0.000000 0.000000 0.000000 0.000000 0.000000 0.000000 0.000000 0.000000 0.000000 0.000000 0.000000 134587.260697 6441.386929 0.000000 0.000000 63911.190165 0.000000 0.000000 0.000000 0.000000 0.000000 0.000000 0.000000 32682.828246 116706.529424 140216.898522 0.000000 32312.996267 0.000000 129795.735443 0.000000 148893.266268 0.000000 0.000000 0.000000 0.000000 0.000000 0.000000 38506.841941 0.000000 259864.538682 22408.593520 2561.951239 0.000000 0.000000 0.000000 0.000000 0.000000 0.000000 0.000000 0.000000 0.000000 0.000000 0.000000 0.000000 0.000000 0.000000 0.000000 0.000000 90521.122793 0.000000 0.000000 0.000000 0.000000 0.000000 0.000000 0.000000 0.000000 0.000000 23406.431701 57927.495805 0.000000 0.000000 0.000000 0.000000 0.000000 15798.852724 69976.123740 0.000000 0.000000 0.000000 0.000000 0.000000 30631.332983 117422.052880 0.000000 0.000000 0.000000 0.000000 0.000000 16865.355681 81817.515453 0.000000 0.000000 0.000000 0.000000 0.000000 7306.492491 66857.011531 0.000000 0.000000 0.000000 0.000000 0.000000 6645.305978 41205.110471 0.000000 0.000000 0.000000 0.000000 0.000000 19876.680679 81100.657491 0.000000 0.000000 0.000000 0.000000 0.000000 27432.781688 158412.250366 0.000000 0.000000 0.000000 0.000000 0.000000 14059.435846 64825.999772 0.000000 0.000000 0.000000 0.000000 0.000000 4142.162872 10967.691706 0.000000 0.000000 0.000000 0.000000 0.000000 0.000000 0.000000 0.000000 0.000000 0.000000 0.000000 0.000000 1250.661959 31546.973174 0.000000 0.000000 0.000000 0.000000 0.000000 3096.408888 56083.210403 0.000000 0.000000 0.000000 0.000000 0.000000 9406.687454 83792.473875 0.000000 0.000000 0.000000 0.000000 0.000000 9500.061991 40048.726593 0.000000 0.000000 0.000000 0.000000 0.000000 27103.614292 17682.949824 0.000000 0.000000 0.000000 0.000000 0.000000 40627.030341 26916.013551 0.000000 0.000000 0.000000 0.000000 0.000000 5129.391077 0.000000 0.000000 0.000000 0.000000 0.000000 0.000000 12583.725816 0.000000 0.000000 0.000000 0.000000 0.000000 0.000000 27525.625834 69466.328175 0.000000 0.000000 0.000000 0.000000 0.000000 3795.164370 0.000000 0.000000 0.000000 0.000000 0.000000 0.000000 0.000000 0.000000 0.000000 0.000000 0.000000 0.000000 0.000000 3234.984862 0.000000 0.000000 0.000000 0.000000 0.000000 0.000000 16386.778110 114883.075765 0.000000 0.000000 0.000000 0.000000 0.000000 14004.164794 106871.302240 0.000000 0.000000 0.000000 0.000000 0.000000 3565.366006 4448.734299 0.000000 0.000000 0.000000 0.000000 0.000000 7765.331918 40640.399449 0.000000 0.000000 0.000000 0.000000 0.000000 4647.049062 44652.677850 0.000000 0.000000 0.000000 0.000000 0.000000 23048.127427 55626.957256 0.000000 0.000000 0.000000 0.000000 0.000000 62864.031692 76834.454158 0.000000 0.000000 0.000000 0.000000 0.000000 29944.325526 97670.739563 0.000000 0.000000 0.000000 0.000000 0.000000 20204.998711 187323.630925 0.000000 0.000000 0.000000 0.000000 0.000000 5956.021303 19246.060904 0.000000 0.000000 0.000000 0.000000 0.000000 0.000000 0.000000 0.000000 0.000000 0.000000 0.000000 0.000000 7153.845243 0.000000 0.000000 0.000000 0.000000 0.000000 0.000000 24909.967129 26748.695296 0.000000 0.000000 0.000000 0.000000 0.000000 7220.729589 0.000000 0.000000 0.000000 0.000000 0.000000 0.000000 0.000000 0.000000 0.000000 0.000000 0.000000 0.000000 0.000000 1451.295189 0.000000 0.000000 0.000000 0.000000 0.000000 0.000000 39940.124555 32601.606171 0.000000 0.000000 0.000000 0.000000 0.000000 69583.807946 195158.159994 0.000000 0.000000 0.000000 0.000000 0.000000 23102.007203 70126.929413 0.000000 0.000000 0.000000 0.000000 0.000000 5706.142023 33069.423779 0.000000 0.000000 0.000000 0.000000 0.000000 20845.921004 98676.141706 0.000000 0.000000 0.000000 0.000000 0.000000 16366.520596 25720.294732 0.000000 0.000000 0.000000 0.000000 0.000000 0.000000 0.000000 0.000000 0.000000 0.000000 0.000000 0.000000 0.000000 0.000000 0.000000 0.000000 0.000000 0.000000 0.000000 12444.068012 70220.880956 0.000000 0.000000 0.000000 0.000000 0.000000 59238.772346 399166.429531 0.000000 0.000000 0.000000 0.000000 0.000000 52439.890193 260642.223303 0.000000 0.000000 0.000000 0.000000 0.000000 23235.150432 257021.651465 0.000000 0.000000 0.000000 0.000000 0.000000 27845.319312 278058.072936 0.000000 0.000000 0.000000 0.000000 0.000000 4991.244733 11208.538393 0.000000 0.000000 0.000000 0.000000 0.000000 0.000000 0.000000 0.000000 0.000000 0.000000 0.000000 0.000000 0.000000 0.000000 0.000000 0.000000 0.000000 0.000000 0.000000 16000.964984 0.000000 0.000000 0.000000 0.000000 0.000000 0.000000 89479.795643 412627.412947 0.000000 0.000000 0.000000 0.000000 0.000000 44904.966324 185311.911697 0.000000 0.000000 0.000000 0.000000 0.000000 21942.609960 136676.909946 0.000000 0.000000 0.000000 0.000000 0.000000 27864.728958 116632.153875 0.000000 0.000000 0.000000 0.000000 0.000000 5068.294160 0.000000 0.000000 0.000000 0.000000 0.000000 0.000000 20689.134946 5522.220260 0.000000 0.000000 0.000000 0.000000 0.000000 73008.673990 347647.962812 0.000000 0.000000 0.000000 0.000000 0.000000 29438.331759 109572.744285 0.000000 0.000000 0.000000 0.000000 0.000000 30742.788351 184936.938999 0.000000 0.000000 0.000000 0.000000 0.000000 105377.542673 1292286.459456 0.000000 0.000000 0.000000 0.000000 0.000000 66699.342228 858421.904180 0.000000 0.000000 0.000000 0.000000 0.000000 31542.885661 282805.078723 0.000000 0.000000 0.000000 0.000000 0.000000 100561.396872 510343.210258 0.000000 0.000000 0.000000 0.000000 0.000000 91298.811365 317404.132365 0.000000 0.000000 0.000000 0.000000 0.000000 34108.043698 75505.728751 0.000000 0.000000 0.000000 0.000000 0.000000 22765.401842 104745.449128 0.000000 0.000000 0.000000 0.000000 0.000000 7947.187950 13800.656550 0.000000 0.000000 0.000000 0.000000 0.000000 21928.340151 18858.331947 0.000000 0.000000 0.000000 0.000000 0.000000 13352.137638 0.000000 0.000000 0.000000 0.000000 0.000000 0.000000 33008.186632 5509.270727 0.000000 0.000000 0.000000 0.000000 0.000000 54054.678780 37333.830779 0.000000 0.000000 0.000000 0.000000 0.000000 64275.633502 82631.512234 0.000000 0.000000 0.000000 0.000000 0.000000 29622.103837 21813.119445 0.000000 0.000000 0.000000 0.000000 0.000000 19784.827529 0.000000 0.000000 0.000000 0.000000 0.000000 0.000000 57321.571056 72860.862113 0.000000 0.000000 0.000000 0.000000 0.000000 20137.421806 36665.342851 0.000000 0.000000 0.000000 7242.088086 9707.228847 0.000000 27687.701854 51720.998236 22485.189119 19360.149118 8752.057214 0.000000 0.000000 0.000000 0.000000 0.000000 0.000000 0.000000 0.000000 0.000000 0.000000 0.000000 0.000000 0.000000 0.000000 0.000000 0.000000 0.000000 0.000000 0.000000 0.000000 0.000000 0.000000 0.000000 0.000000 0.000000 0.000000 0.000000 0.000000 0.000000 0.000000 0.000000 0.000000 0.000000 0.000000 0.000000 0.000000 0.000000 0.000000 0.000000 0.000000 0.000000 0.000000 0.000000 0.000000 0.000000 0.000000 0.000000 0.000000 0.000000 0.000000 0.000000 0.000000 0.000000 0.000000 0.000000 0.000000 0.000000 0.000000 0.000000 0.000000 0.000000 0.000000 0.000000 0.000000 0.000000 0.000000 0.000000 0.000000 0.000000 0.000000 0.000000 0.000000 0.000000 0.000000 0.000000 0.000000 0.000000 0.000000 0.000000 0.000000 0.000000 0.000000 0.000000 0.000000 0.000000 0.000000 0.000000 0.000000 0.000000 0.000000 0.000000 0.000000 0.000000 0.000000 0.000000 0.000000 0.000000 0.000000 0.000000 0.000000 0.000000 0.000000 0.000000 0.000000 0.000000 0.000000 0.000000 0.000000 0.000000 0.000000 0.000000 0.000000 0.000000 0.000000 0.000000 0.000000 0.000000 0.000000 0.000000 0.000000 0.000000 0.000000 0.000000 0.000000 0.000000 0.000000 0.000000 0.000000 0.000000 0.000000 0.000000 0.000000 0.000000 0.000000 0.000000 0.000000 0.000000 0.000000 0.000000 0.000000 0.000000 0.000000 0.000000 0.000000 0.000000 0.000000 0.000000 0.000000 0.000000 0.000000 0.000000 0.000000 0.000000 0.000000 0.000000 0.000000
</DataArray>
<DataArray type="Float64" Name="Velocity" NumberOfComponents="3" format="ascii">