<VTKFile type="PolyData">
<PolyData>
<Piece NumberOfPoints="1840" NumberOfVerts="1840" NumberOfLines="0" NumberOfStrips="0" NumberOfPolys="0">
<PointData>
<DataArray type="Float64" Name="Pressure" format="ascii">
 0.000000 0.000000 0.000000 0.000000 0.000000 0.000000 0.000000 0.000000 0.000000 0.000000 0.000000 0.000000 0.000000 0.000000 0.000000 0.000000 0.000000 0.000000 0.000000 0.000000 0.000000 0.000000 0.000000 0.000000 0.000000 0.000000 0.000000 0.000000 0.000000 0.000000 0.000000 0.000000 0.000000 0.000000 0.000000 0.000000 0.000000 0.000000 0.000000 0.000000 0.000000 0.000000 0.000000 0.000000 0.000000 0.000000 0.000000 0.000000 0.000000 0.000000 0.000000 0.000000 0.000000 0.000000 0.000000 0.000000 0.000000 0.000000 0.000000 0.000000 0.000000 0.000000 0.000000 0.000000 0.000000 0.000000 0.000000 0.000000 0.000000 0.000000 0.000000 0.000000 0.000000 0.000000 0.000000 0.000000 0.000000 0.000000 0.000000 0.000000 0.000000 0.000000 0.000000 0.000000 0.000000 0.000000 0.000000 0.000000 0.000000 0.000000 0.000000 0.000000 0.000000 0.000000 0.000000 0.000000 0.000000 0.000000 0.000000 0.000000 0.000000 0.000000 0.000000 0.000000 0.000000 0.000000 0.000000 0.000000 0.000000 0.000000 0.000000 0.000000 0.000000 0.000000 0.000000 0.000000 1234.445263 9479.256595 7009.598500 12901.017869 13989.125192 13075.717767 40998.327481 26229.550370 0.000000 0.000000 5144.632781 625.665412 0.000000 0.000000 0.000000 0.000000 0.000000 0.000000 0.000000 0.000000 0.000000 0.000000 0.000000 0.000000 0.000000 0.000000 0.000000 0.000000 0.000000 0.000000 0.000000 0.000000 0.000000 0.000000 0.000000 0.000000 0.000000 0.000000 0.000000 0.000000 0.000000 0.000000 0.000000 0.000000 0.000000 0.000000 0.000000 0.000000 0.000000 0.000000 0.000000 0.000000 0.000000 0.000000 0.000000 0.000000 0.000000 17368.307040 89064.754467 38036.574565 33101.740780 62819.548209 67841.571195 80558.883926 0.000000 0.000000 0.000000 0.000000 0.000000 0.000000 0.000000 0.000000 0.000000 0.000000 0.000000 0.000000 0.000000 0.000000 0.000000 0.000000 0.000000 0.000000 0.000000 0.000000 0.000000 0.000000 0.000000 0.000000 0.000000 0.000000 0.000000 0.000000 0.000000 0.000000 0.000000 0.000000 0.000000 0.000000 0.000000 0.000000 0.000000 0.000000 0.000000 0.000000 0.000000 0.000000 0.000000 0.000000 0.000000 0.000000 0.000000 0.000000 0.000000 0.000000 26433.835501 163990.836045 154985.747337 32660.578918 42635.356377 131567.042365 69559.065384 78395.535901 22153.334028 48338.423099 6322.201446 0.000000 90112.144193 22821.523137 0.000000 27491.479618 42198.954047 91209.519096 42836.273334 78571.384324 0.000000 1165.790015 41611.675822 72396.458691 28180.628063 0.000000 20377.987147 0.000000 13818.983158 6530.654432 0.000000 62069.607638 32294.596531 5485.757853 94117.709089 0.000000 0.000000 38418.472406 0.000000 0.000000 0.000000 0.000000 0.000000 0.000000 0.000000 0.000000 15808.037024 90175.166243 81890.098124 121038.740221 123891.654656 24353.794657 30314.802493 42728.595994 124617.906052 32716.062211 65091.838413 67914.572810 83706.050546 63615.454394 68072.518142 82419.726011 39787.076833 13379.430808 67835.443022 37814.092358 30209.368725 51406.595389 71682.440546 1324.665088 52389.409434 111154.359591 2330.243263 127978.320053 0.000000 0.000000 0.000000 0.000000 0.000000 59716.340869 0.000000 0.000000 34118.217331 0.000000 0.000000 0.000000 0.000000 0.000000 0.000000 0.000000 0.000000 0.000000 34220.269538 111530.251496 141519.619340 37803.953928 84882.340447 155239.562833 62550.896132 134616.470397 103018.399729 81111.681239 55168.197763 41374.947577 67139.970026 74906.526619 94491.946575 15153.837528 106599.733595 53456.093805 77836.973428 21026.341380 80673.018469 54207.327316 65360.817220 47496.881920 42717.313536 0.000000 12441.861815 88296.703836 102148.082948 38116.055112 44929.061480 43890.845339 48475.013769 0.000000 24508.642344 18467.026907 50247.050047 0.000000 0.000000 0.000000 101332.828082 0.000000 0.000000 0.000000 0.000000 0.000000 31857.852184 123298.173120 30903.980408 41295.724371 157198.712908 43906.731142 129538.172222 59639.901846 89175.471777 92770.501312 33787.738330 130457.929925 74357.630013 50829.354461 111034.320797 62423.758150 54635.918967 73413.513840 80084.144901 72777.215186 13128.622563 113986.593570 9497.220504 33104.083052 9346.833589 24248.096707 48016.275750 27958.846802 45100.847108 47527.027226 9970.622336 0.000000 0.000000 30702.226300 31493.159651 0.000000 80812.938067 0.000000 0.000000 33534.338256 0.000000 0.000000 0.000000 0.000000 0.000000 0.000000 12882.601145 58373.964110 116016.114289 80512.330627 55968.736311 91635.560247 77817.586667 38524.469529 107513.580648 9550.661851 143003.075246 39781.696569 73460.966764 194257.263846 71096.060438 83991.238809 40773.702668 35333.604423 77777.657699 0.000000 21725.411304 86886.781583 49528.744172 64547.317504 1682.631473 66978.392676 92372.830389 62452.959590 49746.195780 18878.472339 77964.315706 57819.007315 0.000000 0.000000 24562.036558 0.000000 13918.856180 52712.060468 52885.768889 0.000000 0.000000 0.000000 0.000000 0.000000 0.000000 0.000000 34495.551250 77223.831954 74804.660440 31932.453260 87762.816679 49845.465294 29491.976833 58675.838328 154662.413452 13993.839712 47156.981384 97870.058230 90065.059984 27760.462349 35198.089615 11879.194773 51489.315623 81946.554851 56155.504690 14399.122598 0.000000 8943.127326 15801.372697 27798.660165 32956.024235 122843.711967 34210.536802 55265.922123 62130.910944 2211.046683 0.000000 20626.329084 0.000000 115285.067002 8354.494211 16115.120549 0.000000 47894.245965 10359.286652 77066.528813 0.000000 0.000000 0.000000 0.000000 0.000000 0.000000 32957.490570 109994.482645 69638.388205 29479.807983 77578.284795 124224.467321 25586.930312 20493.623930 106535.270674 60266.930923 79006.837420 44097.452415 66400.006795 103459.460320 70992.893107 61402.797292 0.000000 94506.888917 43289.724675 44044.920547 0.000000 9014.477279 100584.814175 38606.720141 0.000000 8295.590288 89876.694664 0.000000 32627.498849 37206.931238 0.000000 0.000000 36798.839261 0.000000 0.000000 0.000000 58284.169735 89513.708260 48782.923511 0.000000 17934.734529 0.000000 0.000000 0.000000 0.000000 0.000000 44998.610891 135897.806512 28717.490041 0.000000 57892.165441 92468.480734 21814.382394 40144.945988 0.000000 72743.414310 23323.168381 78062.870495 34642.329757 0.000000 31185.039847 23360.503849 10426.610592 40160.657027 47824.383486 54233.291383 20327.554537 72473.453815 0.000000 65512.506696 53367.511334 0.000000 0.000000 102.668711 46566.924184 0.000000 19164.888544 26666.386773 28673.861234 0.000000 0.000000 34007.998815 11604.059884 0.000000 14310.160999 0.000000 26029.161776 0.000000 0.000000 0.000000 0.000000 0.000000 44849.480091 109008.755162 0.000000 0.000000 0.000000 29146.913093 39043.002827 116750.914548 25593.148756 95338.250192 0.000000 0.000000 29330.315651 44398.010308 0.000000 10266.815071 41070.284023 57059.894374 58626.229747 42906.217633 0.000000 25321.628030 41667.133271 38238.198264 39858.359033 58294.344735 35612.942556 77930.778462 26546.219888 0.000000 49714.950054 100058.912751 0.000000 5641.371999 70352.055977 65750.230707 9239.037889 29765.374231 0.000000 0.000000 0.000000 0.000000 0.000000 0.000000 0.000000 0.000000 31707.813259 136590.698025 35028.551920 347632.940467 121129.408671 29427.381719 62797.125162 159192.604675 72459.920883 14667.094832 46960.585532 52280.012183 12605.864849 0.000000 60667.347854 9280.149676 14617.846722 0.000000 60970.262231 15443.565923 17757.656612 9871.563828 0.000000 64793.737075 0.000000 11101.180013 35535.636062 0.000000 75091.878305 0.000000 18560.538151 29618.259902 0.000000 1763.745507 2928.271454 57415.451305 21943.346636 0.000000 0.000000 3767.871132 0.000000 0.000000 0.000000 0.000000 0.000000 0.000000 17551.752859 96722.008587 145381.085004 0.000000 196180.657146 0.000000 0.000000 0.000000 0.000000 0.000000 0.000000 0.000000 0.000000 0.000000 0.000000 35192.636288 0.000000 279869.015033 0.000000 0.000000 0.000000 25879.555202 40906.294767 0.000000 41714.588556 0.000000 58068.240452 36089.826976 36218.049269 30911.157930 38780.060410 0.000000 8837.235883 68712.188200 45911.237884 0.000000 0.000000 0.000000 8703.004302 0.000000 38530.543668 0.000000 0.000000 0.000000 0.000000 0.000000 24732.782998 127864.280078 407622.864267 262976.741162 155289.356509 484747.271090 127031.264343 107924.206262 0.000000 0.000000 331844.986603 147186.671655 72266.789317 0.000000 0.000000 0.000000 5018.220480 0.000000 0.000000 0.000000 22655.686072 0.000000 115561.849837 0.000000 38250.288539 26402.947353 0.000000 0.000000 0.000000 0.000000 26871.163626 0.000000 0.000000 0.000000 27433.234207 0.000000 0.000000 0.000000 5411.966724 0.000000 56130.665648 0.000000 0.000000 0.000000 0.000000 0.000000 63553.567201 166230.538724 109326.828284 88187.117470 99665.868413 15138.251941 0.000000 113941.928351 194162.696179 150159.711469 270452.981819 0.000000 267889.595393 92666.894488 39264.654640 386142.102996 369547.745124 59123.091014 0.000000 0.000000 0.000000 0.000000 0.000000 0.000000 0.000000 0.000000 0.000000 272080.498852 0.000000 30569.825928 0.000000 0.000000 35815.463642 24666.414108 24970.830670 3004.820570 59915.292456 3221.999206 1281.525212 0.000000 0.000000 0.000000 0.000000 0.000000 0.000000 0.000000 35480.010066 129125.990495 163260.240532 3445.875246 0.000000 376451.809907 372726.184584 296147.963691 342976.675681 86723.918478 0.000000 57399.240254 87644.839473 11872.909195 81338.968521 306990.464832 96091.741070 537136.333017 451429.163610 368905.209126 0.000000 0.000000 0.000000 0.000000 0.000000 65037.130512 0.000000 0.000000 14935.239116 41305.252377 0.000000 16897.102927 0.000000 71108.064275 84059.091072 59654.409369 30069.450266 61618.002015 13325.369160 0.000000 5499.785536 0.000000 0.000000 0.000000 0.000000 0.000000 27629.643671 138445.078473 267999.575502 111388.966467 89700.248091 47401.085823 0.000000 0.000000 237036.950119 145016.223091 101837.574043 0.000000 308864.494495 71130.992572 254194.447211 420279.475586 7864.708968 219057.654894 30333.125354 0.000000 0.000000 13345.308982 28089.742077 86355.578563 55776.918629 45420.392978 0.000000 0.000000 0.000000 0.000000 60427.855096 0.000000 0.000000 39038.780974 33285.107528 106999.757769 0.000000 0.000000 0.000000 0.000000 0.000000 0.000000 0.000000 0.000000 0.000000 0.000000 50481.631614 151030.204274 0.000000 281074.371529 237903.133426 353016.273894 441006.987028 0.000000 0.000000 0.000000 0.000000 128046.517132 0.000000 0.000000 98928.554341 181296.352070 15851.814522 0.000000 16352.515976 126317.870197 0.000000 249563.182457 4059.667093 114384.322607 42562.929854 0.000000 23663.846637 26598.310594 81003.910897 84161.311949 0.000000 0.000000 0.000000 0.000000 24905.470444 117402.167065 6008.570180 0.000000 9283.326481 0.000000 0.000000 0.000000 0.000000 0.000000 0.000000 0.000000 43761.962137 63549.391287 0.000000 0.000000 0.000000 17428.301918 7452.036281 0.000000 0.000000 0.000000 0.000000 0.000000 0.000000 0.000000 69307.769918 43638.828384 143337.664098 49431.548014 0.000000 41122.787613 2707.065721 0.000000 11948.607053 0.000000 0.000000 11205.851220 0.000000 0.000000 88767.834335 0.000000 140725.652541 576626.805797 44600.312316 0.000000 71693.912736 46732.260534 30097.559300 0.000000 40146.521927 0.000000 54262.291188 0.000000 0.000000 0.000000 0.000000 0.000000 65369.202219 137989.556247 0.000000 0.000000 0.000000 0.000000 870868.944156 870868.944156 0.000000 355214.532568 0.000000 71609.719035 0.000000 0.000000 69420.470037 0.000000 0.000000 0.000000 0.000000 0.000000 0.000000 0.000000 0.000000 0.000000 0.000000 0.000000 0.000000 268393.821771 599943.541183 0.000000 246965.529196 0.000000 155337.761320 61582.548577 161725.145265 0.000000 91875.655435 0.000000 0.000000 176431.669562 0.000000 0.000000 0.000000 0.000000 0.000000 0.000000 24158.549575 91723.814354 243628.926455 0.000000 0.000000 0.000000 0.000000 0.000000 0.000000 0.000000 38379.476189 0.000000 12953.439908 0.000000 45436.566759 0.000000 520665.906281 0.000000 0.000000 0.000000 0.000000 0.000000 0.000000 0.000000 0.000000 0.000000 0.000000 0.000000 0.000000 0.000000 0.000000 0.000000 17369.620510 95917.050842 119508.872931 0.000000 0.000000 0.000000 0.000000 18467.612677 106094.439381 0.000000 0.000000 0.000000 0.000000 0.000000 22910.181964 81962.783480 0.000000 0.000000 0.000000 0.000000 0.000000 65674.029469 190950.518045 0.000000 0.000000 0.000000 0.000000 0.000000 37678.512961 135173.149554 0.000000 0.000000 0.000000 0.000000 0.000000 45784.440828 143743.856663 0.000000 0.000000 0.000000 0.000000 0.000000 39119.672483 101915.847886 0.000000 0.000000 0.000000 0.000000 0.000000 26022.405300 77500.415588 0.000000 0.000000 0.000000 0.000000 0.000000 39628.901911 136222.788633 0.000000 0.000000 0.000000 0.000000 0.000000 25253.564846 107237.593260 0.000000 0.000000 0.000000 0.000000 0.000000 11563.546288 64901.544700 0.000000 0.000000 0.000000 0.000000 0.000000 26245.882179 72951.859399 0.000000 0.000000 0.000000 0.000000 0.000000 38904.642217 85327.134188 0.000000 0.000000 0.000000 0.000000 0.000000 58859.479287 95953.042595 0.000000 0.000000 0.000000 0.000000 0.000000 44486.470500 60956.687348 0.000000 0.000000 0.000000 0.000000 0.000000 45081.364227 87965.921828 0.000000 0.000000 0.000000 0.000000 0.000000 61979.458503 159059.926271 0.000000 0.000000 0.000000 0.000000 0.000000 15090.648563 60366.695727 0.000000 0.000000 0.000000 0.000000 0.000000 20472.500000 37494.667614 0.000000 0.000000 0.000000 0.000000 0.000000 54465.189745 112489.367495 0.000000 0.000000 0.000000 0.000000 0.000000 26114.737643 35846.654081 0.000000 0.000000 0.000000 0.000000 0.000000 44672.321174 91704.831301 0.000000 0.000000 0.000000 0.000000 0.000000 28012.756154 80812.170299 0.000000 0.000000 0.000000 0.000000 0.000000 4194.055492 23182.011119 0.000000 0.000000 0.000000 0.000000 0.000000 8951.203170 30789.459593 0.000000 0.000000 0.000000 0.000000 0.000000 34006.543093 107477.020203 0.000000 0.000000 0.000000 0.000000 0.000000 26564.627429 38273.954206 0.000000 0.000000 0.000000 0.000000 0.000000 45009.405901 59288.503214 0.000000 0.000000 0.000000 0.000000 0.000000 32653.557632 53407.140138 0.000000 0.000000 0.000000 0.000000 0.000000 6715.316936 30352.271881 0.000000 0.000000 0.000000 0.000000 0.000000 28851.664000 106893.243557 0.000000 0.000000 0.000000 0.000000 0.000000 26242.880143 60438.800258 0.000000 0.000000 0.000000 0.000000 0.000000 32195.538276 121226.295014 0.000000 0.000000 0.000000 0.000000 0.000000 26740.544958 76627.479154 0.000000 0.000000 0.000000 0.000000 0.000000 24650.258243 62366.182747 0.000000 0.000000 0.000000 0.000000 0.000000 18487.130397 45633.157720 0.000000 0.000000 0.000000 0.000000 0.000000 20125.750874 19704.063540 0.000000 0.000000 0.000000 0.000000 0.000000 52523.895528 82483.064258 0.000000 0.000000 0.000000 0.000000 0.000000 22585.509737 42809.684380 0.000000 0.000000 0.000000 0.000000 0.000000 17817.843501 79657.939371 0.000000 0.000000 0.000000 0.000000 0.000000 16483.493219 64065.863603 0.000000 0.000000 0.000000 0.000000 0.000000 44811.493441 94074.711205 0.000000 0.000000 0.000000 0.000000 0.000000 31249.992290 66260.086219 0.000000 0.000000 0.000000 0.000000 0.000000 21863.389389 60036.394430 0.000000 0.000000 0.000000 0.000000 0.000000 19594.275856 58517.980219 0.000000 0.000000 0.000000 0.000000 0.000000 15853.028000 21497.618616 0.000000 0.000000 0.000000 0.000000 0.000000 44549.720184 56182.951163 0.000000 0.000000 0.000000 0.000000 0.000000 30640.666735 30518.748522 0.000000 0.000000 0.000000 0.000000 0.000000 55917.065140 107613.597504 0.000000 0.000000 0.000000 0.000000 0.000000 33545.408378 89663.481629 0.000000 0.000000 0.000000 0.000000 0.000000 14513.065961 96584.576481 0.000000 0.000000 0.000000 0.000000 0.000000 45875.758746 143562.485436 0.000000 0.000000 0.000000 0.000000 0.000000 55651.432409 159479.030152 0.000000 0.000000 0.000000 0.000000 0.000000 47484.121405 172746.484837 0.000000 0.000000 0.000000 0.000000 0.000000 36252.810413 105248.477014 0.000000 0.000000 0.000000 0.000000 0.000000 20305.227447 79522.505787 0.000000 0.000000 0.000000 0.000000 0.000000 58570.588151 144570.853264 0.000000 0.000000 0.000000 0.000000 0.000000 26903.430069 6772.881601 0.000000 0.000000 0.000000 0.000000 0.000000 7460.733000 0.000000 0.000000 0.000000 0.000000 0.000000 0.000000 3714.540484 0.000000 0.000000 0.000000 0.000000 0.000000 0.000000 0.000000 0.000000 0.000000 0.000000 0.000000 0.000000 0.000000 2714.045809 0.000000 0.000000 0.000000 0.000000 0.000000 0.000000 35112.741976 12913.208593 0.000000 0.000000 0.000000 0.000000 0.000000 36505.860687 79348.261452 0.000000 0.000000 0.000000 0.000000 0.000000 23700.112606 129034.040875 0.000000 0.000000 0.000000 0.000000 0.000000 12576.030169 21402.282457 0.000000 0.000000 0.000000 0.000000 0.000000 0.000000 0.000000 0.000000 0.000000 0.000000 0.000000 0.000000 3876.326570 10975.817965 0.000000 0.000000 0.000000 0.000000 0.000000 4900.655973 7261.636871 0.000000 0.000000 0.000000 0.000000 0.000000 5023.157096 15371.951537 0.000000 0.000000 0.000000 0.000000 0.000000 18638.782356 109163.164666 0.000000 0.000000 0.000000 0.000000 0.000000 6744.847440 12339.155093 0.000000 0.000000 0.000000 0.000000 0.000000 898.725977 0.000000 0.000000 0.000000 0.000000 0.000000 0.000000 0.000000 0.000000 0.000000 0.000000 0.000000 0.000000 0.000000 19115.897174 73889.656484 0.000000 0.000000 0.000000 0.000000 0.000000 48017.476803 302126.430470 0.000000 0.000000 0.000000 0.000000 0.000000 64467.757424 256353.190359 0.000000 0.000000 0.000000 0.000000 0.000000 66144.599928 468223.774419 0.000000 0.000000 0.000000 0.000000 0.000000 76514.210583 454116.123955 0.000000 0.000000 0.000000 0.000000 0.000000 75279.044271 146020.580543 0.000000 0.000000 0.000000 0.000000 0.000000 35618.424321 97635.118094 0.000000 0.000000 0.000000 0.000000 0.000000 32235.344636 397327.712567 0.000000 0.000000 0.000000 0.000000 0.000000 23422.555959 488896.371201 0.000000 0.000000 0.000000 0.000000 0.000000 5599.362877 84427.494931 133180.379525 39031.012113 24996.761183 10923.504188 83389.723956 44170.588500 30110.949552 61511.870128 32805.114755 44766.919411 71566.494706 14382.332947 0.000000 0.000000 0.000000 0.000000 6525.185009 0.000000 0.000000 0.000000 0.000000 0.000000 0.000000 0.000000 0.000000 0.000000 0.000000 0.000000 0.000000 0.000000 0.000000 0.000000 0.000000 0.000000 0.000000 0.000000 0.000000 0.000000 0.000000 0.000000 0.000000 0.000000 0.000000 0.000000 0.000000 0.000000 0.000000 0.000000 0.000000 0.000000 0.000000 0.000000 0.000000 0.000000 0.000000 0.000000 0.000000 78.983681 0.000000 0.000000 0.000000 0.000000 0.000000 0.000000 0.000000 0.000000 0.000000 0.000000 0.000000 0.000000 0.000000 0.000000 0.000000 0.000000 0.000000 0.000000 0.000000 0.000000 0.000000 0.000000 0.000000 0.000000 0.000000 0.000000 0.000000 0.000000 0.000000 0.000000 0.000000 0.000000 0.000000 0.000000 0.000000 0.000000 0.000000 0.000000 0.000000 0.000000 0.000000 0.000000 0.000000 0.000000 0.000000 0.000000 0.000000 0.000000 0.000000 0.000000 0.000000 0.000000 0.000000 0.000000 0.000000 0.000000 0.000000 0.000000 0.000000 0.000000 0.000000 0.000000 0.000000 0.000000 0.000000 0.000000 0.000000 0.000000 0.000000 0.000000 0.000000 0.000000 0.000000 0.000000 0.000000 0.000000 0.000000 0.000000 0.000000 0.000000 0.000000 0.000000 0.000000 0.000000 0.000000 0.000000 0.000000 0.000000 0.000000 0.000000 0.000000 0.000000 0.000000 0.000000 0.000000 0.000000 0.000000 0.000000 0.000000 0.000000 0.000000 0.000000 0.000000 0.000000 0.000000 0.000000 0.000000 0.000000 0.000000
</DataArray>
<DataArray type="Float64" Name="Velocity" NumberOfComponents="3" format="ascii">