<VTKFile type="PolyData">
<PolyData>
<Piece NumberOfPoints="1840" NumberOfVerts="1840" NumberOfLines="0" NumberOfStrips="0" NumberOfPolys="0">
<PointData>
<DataArray type="Float64" Name="Pressure" format="ascii">
 0.000000 0.000000 0.000000 0.000000 0.000000 0.000000 0.000000 0.000000 0.000000 0.000000 0.000000 0.000000 0.000000 0.000000 0.000000 0.000000 0.000000 0.000000 0.000000 0.000000 0.000000 0.000000 0.000000 0.000000 0.000000 0.000000 0.000000 0.000000 0.000000 0.000000 0.000000 0.000000 0.000000 0.000000 0.000000 0.000000 0.000000 0.000000 0.000000 0.000000 0.000000 0.000000 0.000000 0.000000 0.000000 0.000000 0.000000 0.000000 0.000000 0.000000 0.000000 0.000000 0.000000 0.000000 0.000000 0.000000 0.000000 0.000000 0.000000 0.000000 0.000000 0.000000 0.000000 0.000000 0.000000 0.000000 0.000000 0.000000 0.000000 0.000000 0.000000 0.000000 0.000000 0.000000 0.000000 0.000000 0.000000 0.000000 0.000000 0.000000 0.000000 0.000000 0.000000 0.000000 0.000000 0.000000 0.000000 0.000000 0.000000 0.000000 0.000000 0.000000 0.000000 0.000000 0.000000 0.000000 0.000000 0.000000 0.000000 0.000000 0.000000 0.000000 0.000000 0.000000 0.000000 0.000000 0.000000 0.000000 0.000000 0.000000 0.000000 0.000000 0.000000 0.000000 0.000000 0.000000 0.000000 0.000000 8076.382950 13903.707129 0.000000 0.000000 1048.298816 0.000000 0.000000 16357.378369 47912.067942 12277.285690 0.000000 25610.028069 50201.731208 7966.271115 0.000000 0.000000 0.000000 0.000000 0.000000 0.000000 0.000000 0.000000 0.000000 0.000000 0.000000 0.000000 0.000000 0.000000 0.000000 0.000000 0.000000 0.000000 0.000000 0.000000 0.000000 0.000000 0.000000 0.000000 0.000000 0.000000 0.000000 0.000000 0.000000 0.000000 0.000000 0.000000 0.000000 0.000000 0.000000 0.000000 0.000000 0.000000 0.000000 0.000000 0.000000 572.119753 5459.556416 82975.100541 141238.831571 0.000000 0.000000 0.000000 0.000000 0.000000 0.000000 22521.066890 0.000000 0.000000 0.000000 8704.704278 0.000000 0.000000 0.000000 0.000000 0.000000 0.000000 0.000000 0.000000 0.000000 0.000000 0.000000 0.000000 0.000000 0.000000 0.000000 0.000000 0.000000 0.000000 0.000000 0.000000 0.000000 0.000000 0.000000 0.000000 0.000000 0.000000 0.000000 0.000000 0.000000 0.000000 0.000000 0.000000 0.000000 0.000000 0.000000 0.000000 0.000000 0.000000 0.000000 0.000000 0.000000 0.000000 9388.018290 56136.433140 0.000000 192330.930409 0.000000 128036.166416 21392.750172 0.000000 54352.079196 102725.954387 0.000000 7095.830384 3455.854510 110628.360907 191603.989195 0.000000 0.000000 6506.029402 0.000000 0.000000 0.000000 0.000000 0.000000 0.000000 0.000000 161699.851438 0.000000 0.000000 0.000000 0.000000 0.000000 0.000000 14132.309627 0.000000 0.000000 10908.132600 0.000000 56923.858337 0.000000 0.000000 0.000000 0.000000 0.000000 0.000000 0.000000 0.000000 9706.960058 71117.072323 0.000000 0.000000 0.000000 0.000000 0.000000 520142.704675 0.000000 0.000000 0.000000 0.000000 0.000000 0.000000 0.000000 0.000000 0.000000 0.000000 50530.166204 0.000000 19661.815559 0.000000 0.000000 184990.121747 0.000000 0.000000 0.000000 105070.140126 46305.349455 0.000000 0.000000 0.000000 156350.827274 0.000000 0.000000 0.000000 103540.548712 0.000000 281018.302758 0.000000 40933.555892 0.000000 0.000000 0.000000 0.000000 0.000000 10064.429775 100241.882445 0.000000 0.000000 0.000000 0.000000 0.000000 0.000000 0.000000 21425.748710 0.000000 0.000000 0.000000 0.000000 0.000000 0.000000 83144.425716 111289.921930 238650.663940 108947.761095 377416.403062 0.000000 79809.838286 0.000000 27899.736059 0.000000 176823.501527 0.000000 192037.963837 0.000000 0.000000 0.000000 4215.039246 106079.011469 39767.206696 0.000000 229128.652885 0.000000 30700.381885 0.000000 0.000000 0.000000 0.000000 0.000000 0.000000 0.000000 7733.645329 17173.961431 180177.458623 0.000000 0.000000 0.000000 88898.318584 74293.854519 0.000000 0.000000 1168.084412 0.000000 0.000000 8550.561945 0.000000 0.000000 0.000000 326537.168374 0.000000 0.000000 0.000000 0.000000 0.000000 279025.722213 0.000000 0.000000 0.000000 193996.970152 0.000000 7916.013030 128648.425282 0.000000 0.000000 0.000000 136335.658044 231807.249416 363368.996618 13036.434423 10320.484629 0.000000 34957.561130 0.000000 0.000000 0.000000 0.000000 0.000000 1747.531401 0.000000 47291.644525 0.000000 0.000000 0.000000 78743.702231 0.000000 0.000000 0.000000 0.000000 0.000000 77531.145299 0.000000 0.000000 41853.249690 0.000000 27015.129430 91475.484800 195403.540475 0.000000 110325.035200 33021.837000 0.000000 0.000000 0.000000 0.000000 0.000000 164179.348735 0.000000 0.000000 0.000000 22567.980616 577226.972409 139023.857577 0.000000 120037.334012 0.000000 189847.675477 0.000000 0.000000 0.000000 0.000000 0.000000 0.000000 0.000000 30344.641980 47412.183572 70305.097812 0.000000 40586.224162 0.000000 0.000000 0.000000 283888.542696 91541.843524 0.000000 0.000000 0.000000 88652.883252 0.000000 0.000000 0.000000 0.000000 109798.668779 0.000000 0.000000 0.000000 0.000000 0.000000 0.000000 0.000000 209412.259965 0.000000 0.000000 92533.375271 0.000000 48346.778542 257126.351558 0.000000 0.000000 10979.737974 0.000000 0.000000 33887.808693 0.000000 19322.732409 0.000000 0.000000 0.000000 0.000000 0.000000 28120.026809 77676.764021 0.000000 1187.248072 0.000000 0.000000 0.000000 83132.203941 42684.663085 0.000000 0.000000 0.000000 0.000000 0.000000 5142.763339 0.000000 0.000000 0.000000 0.000000 0.000000 0.000000 0.000000 15023.487071 0.000000 0.000000 0.000000 0.000000 0.000000 0.000000 562123.386493 0.000000 0.000000 0.000000 0.000000 60822.340133 0.000000 0.000000 0.000000 87916.545308 18619.124766 450447.122608 0.000000 0.000000 0.000000 0.000000 0.000000 5142.227634 0.000000 0.000000 0.000000 0.000000 0.000000 17204.036819 0.000000 0.000000 0.000000 0.000000 0.000000 101254.093055 12653.224288 0.000000 2145.963868 0.000000 0.000000 0.000000 0.000000 0.000000 41104.386875 0.000000 0.000000 0.000000 0.000000 28481.444270 24026.268150 0.000000 31576.445594 103467.017678 0.000000 0.000000 134597.702436 0.000000 92082.697976 0.000000 0.000000 0.000000 77306.604990 60356.112886 0.000000 0.000000 0.000000 0.000000 0.000000 46798.106317 209394.753286 127439.454575 129715.054604 18051.740795 212593.773357 0.000000 97802.863797 69215.718235 0.000000 0.000000 0.000000 0.000000 0.000000 0.000000 0.000000 0.000000 20982.185592 9655.893294 0.000000 175051.981952 81953.322831 0.000000 0.000000 0.000000 0.000000 0.000000 0.000000 0.000000 187406.165456 23970.455369 0.000000 38970.577807 0.000000 0.000000 133234.874476 15538.443877 0.000000 272843.309178 180344.543041 0.000000 0.000000 0.000000 0.000000 0.000000 0.000000 44563.835700 124249.634890 65901.800838 256631.305782 581.579423 0.000000 0.000000 17186.198896 0.000000 0.000000 0.000000 144972.951862 0.000000 0.000000 14143.091439 0.000000 0.000000 0.000000 0.000000 0.000000 4326.474561 0.000000 0.000000 236332.214822 0.000000 145576.764172 141689.143685 0.000000 0.000000 0.000000 140034.355180 53739.988449 0.000000 0.000000 0.000000 0.000000 0.000000 68908.769185 5342.333343 84906.060707 0.000000 0.000000 0.000000 0.000000 0.000000 0.000000 1621.052692 0.000000 29930.129328 0.000000 0.000000 173525.093198 0.000000 0.000000 0.000000 544670.973530 0.000000 35814.741301 0.000000 0.000000 0.000000 0.000000 0.000000 0.000000 205190.779082 0.000000 0.000000 0.000000 51074.688872 54174.929649 0.000000 0.000000 0.000000 0.000000 43307.295350 0.000000 0.000000 0.000000 0.000000 0.000000 11901.604907 0.000000 0.000000 0.000000 15748.218591 0.000000 0.000000 0.000000 0.000000 0.000000 0.000000 0.000000 0.000000 0.000000 0.000000 149793.384541 0.000000 4074.337440 209618.304875 224264.274115 109826.165864 0.000000 0.000000 0.000000 0.000000 0.000000 0.000000 0.000000 144219.619558 0.000000 35257.067666 27462.509646 84121.204278 0.000000 99765.509457 0.000000 0.000000 0.000000 10853.427853 0.000000 0.000000 123406.029614 223389.391355 0.000000 0.000000 0.000000 0.000000 0.000000 0.000000 0.000000 0.000000 0.000000 0.000000 0.000000 0.000000 0.000000 0.000000 0.000000 2249.766729 0.000000 0.000000 0.000000 0.000000 0.000000 0.000000 3988.661796 23603.517624 13560.390547 81798.034102 0.000000 0.000000 5995.097493 0.000000 0.000000 43747.664765 0.000000 14516.921978 52858.254229 4876.117758 0.000000 59853.289482 57459.720762 0.000000 0.000000 0.000000 0.000000 0.000000 0.000000 0.000000 55024.880920 73096.178808 0.000000 0.000000 0.000000 0.000000 29086.733161 0.000000 0.000000 0.000000 0.000000 0.000000 0.000000 0.000000 0.000000 18505.836351 90839.311566 256959.453363 0.000000 138601.778794 0.000000 0.000000 0.000000 76426.545842 0.000000 16929.558236 0.000000 94115.030508 0.000000 243247.800481 0.000000 0.000000 4136.066594 228376.892378 73207.978225 0.000000 67096.099754 0.000000 962368.067346 0.000000 75171.722893 0.000000 0.000000 0.000000 0.000000 0.000000 118675.458264 0.000000 0.000000 0.000000 0.000000 0.000000 0.000000 0.000000 0.000000 0.000000 0.000000 0.000000 0.000000 0.000000 0.000000 19804.051408 57165.858257 0.000000 0.000000 11331.823506 0.000000 142082.082594 0.000000 5291.183065 0.000000 0.000000 0.000000 0.000000 0.000000 120061.433297 0.000000 9732.740094 0.000000 0.000000 0.000000 0.000000 0.000000 14515.733403 0.000000 85331.292153 0.000000 64970.274181 0.000000 90477.705577 14156.111310 0.000000 8027.405504 0.000000 0.000000 0.000000 0.000000 0.000000 0.000000 0.000000 0.000000 0.000000 0.000000 0.000000 0.000000 0.000000 0.000000 40089.187418 162850.594517 0.000000 268062.475173 0.000000 0.000000 0.000000 0.000000 78763.782865 0.000000 0.000000 308940.345839 0.000000 0.000000 0.000000 0.000000 0.000000 31976.409253 0.000000 0.000000 0.000000 119453.672222 0.000000 0.000000 0.000000 89641.690746 0.000000 0.000000 0.000000 0.000000 0.000000 20338.111109 0.000000 116953.389347 0.000000 89047.939385 430723.029220 0.000000 0.000000 0.000000 0.000000 0.000000 0.000000 0.000000 0.000000 0.000000 38130.355338 142687.540459 0.000000 19194.264632 46432.222433 0.000000 0.000000 24486.874646 0.000000 33609.025359 2485.010039 0.000000 0.000000 0.000000 74426.602724 0.000000 7588.741141 0.000000 0.000000 10384.055793 0.000000 0.000000 0.000000 4833.984511 15268.256480 25072.733205 0.000000 183918.877161 73984.212874 0.000000 0.000000 0.000000 0.000000 0.000000 0.000000 0.000000 0.000000 0.000000 0.000000 124637.163080 0.000000 0.000000 0.000000 0.000000 0.000000 0.000000 53687.801875 171535.496440 0.000000 0.000000 0.000000 0.000000 0.000000 0.000000 0.000000 0.000000 11561.026535 0.000000 0.000000 0.000000 0.000000 0.000000 0.000000 0.000000 0.000000 0.000000 2419.050825 108561.390837 156633.920528 0.000000 0.000000 4863.002176 0.000000 0.000000 22217.259426 3679.711263 0.000000 199844.945533 0.000000 0.000000 56676.885409 0.000000 0.000000 0.000000 483.789920 0.000000 80461.075691 0.000000 0.000000 0.000000 0.000000 0.000000 26469.165162 140755.842561 0.000000 0.000000 0.000000 0.000000 0.000000 0.000000 14768.123588 0.000000 0.000000 0.000000 0.000000 0.000000 9897.945510 0.000000 0.000000 0.000000 189787.640910 46774.316129 22789.867276 0.000000 0.000000 0.000000 191203.187756 0.000000 0.000000 16195.944336 259992.141602 1458.237720 89348.230541 0.000000 0.000000 0.000000 0.000000 27399.914840 0.000000 0.000000 0.000000 0.000000 42037.982842 0.000000 0.000000 0.000000 0.000000 0.000000 16408.388127 139717.353132 0.000000 0.000000 0.000000 0.000000 0.000000 10687.915379 59478.198873 0.000000 0.000000 0.000000 0.000000 0.000000 32249.738746 109476.965297 0.000000 0.000000 0.000000 0.000000 0.000000 23798.244570 57561.944028 0.000000 0.000000 0.000000 0.000000 0.000000 14106.019811 57252.254415 0.000000 0.000000 0.000000 0.000000 0.000000 43948.214581 318383.849311 0.000000 0.000000 0.000000 0.000000 0.000000 48096.937394 182156.956297 0.000000 0.000000 0.000000 0.000000 0.000000 63940.594047 69459.148240 0.000000 0.000000 0.000000 0.000000 0.000000 21879.618910 4285.484674 0.000000 0.000000 0.000000 0.000000 0.000000 6361.923326 30823.469891 0.000000 0.000000 0.000000 0.000000 0.000000 15002.477868 62369.441983 0.000000 0.000000 0.000000 0.000000 0.000000 54061.346816 204427.355614 0.000000 0.000000 0.000000 0.000000 0.000000 46363.772373 97810.101926 0.000000 0.000000 0.000000 0.000000 0.000000 4149.427094 0.000000 0.000000 0.000000 0.000000 0.000000 0.000000 0.000000 0.000000 0.000000 0.000000 0.000000 0.000000 0.000000 5540.361747 11381.600793 0.000000 0.000000 0.000000 0.000000 0.000000 22732.689329 224799.021505 0.000000 0.000000 0.000000 0.000000 0.000000 14075.724337 137990.372279 0.000000 0.000000 0.000000 0.000000 0.000000 17278.950500 83733.796657 0.000000 0.000000 0.000000 0.000000 0.000000 9195.447621 46248.536574 0.000000 0.000000 0.000000 0.000000 0.000000 3012.095877 5413.971771 0.000000 0.000000 0.000000 0.000000 0.000000 27783.838565 130714.553333 0.000000 0.000000 0.000000 0.000000 0.000000 46910.053619 297686.771120 0.000000 0.000000 0.000000 0.000000 0.000000 19135.208890 64536.989415 0.000000 0.000000 0.000000 0.000000 0.000000 31460.017048 87695.116561 0.000000 0.000000 0.000000 0.000000 0.000000 138381.823881 553916.971818 0.000000 0.000000 0.000000 0.000000 0.000000 74767.395910 390512.151914 0.000000 0.000000 0.000000 0.000000 0.000000 17070.027824 246903.101689 0.000000 0.000000 0.000000 0.000000 0.000000 6584.302295 78175.996046 0.000000 0.000000 0.000000 0.000000 0.000000 0.000000 0.000000 0.000000 0.000000 0.000000 0.000000 0.000000 4707.496880 52913.031917 0.000000 0.000000 0.000000 0.000000 0.000000 10916.175553 137160.766767 0.000000 0.000000 0.000000 0.000000 0.000000 26681.131788 150300.718216 0.000000 0.000000 0.000000 0.000000 0.000000 78346.391485 449042.047835 0.000000 0.000000 0.000000 0.000000 0.000000 63333.988088 243531.853102 0.000000 0.000000 0.000000 0.000000 0.000000 74957.868670 198945.181607 0.000000 0.000000 0.000000 0.000000 0.000000 43552.793928 114933.049658 0.000000 0.000000 0.000000 0.000000 0.000000 40781.777707 74955.769899 0.000000 0.000000 0.000000 0.000000 0.000000 91989.063108 172585.032494 0.000000 0.000000 0.000000 0.000000 0.000000 31320.946862 0.000000 0.000000 0.000000 0.000000 0.000000 0.000000 0.000000 0.000000 0.000000 0.000000 0.000000 0.000000 0.000000 0.000000 0.000000 0.000000 0.000000 0.000000 0.000000 0.000000 216.614314 0.000000 0.000000 0.000000 0.000000 0.000000 0.000000 9429.382956 61480.569254 0.000000 0.000000 0.000000 0.000000 0.000000 5884.162450 26882.316323 0.000000 0.000000 0.000000 0.000000 0.000000 19300.413395 7884.818666 0.000000 0.000000 0.000000 0.000000 0.000000 41428.078710 26467.472083 0.000000 0.000000 0.000000 0.000000 0.000000 39109.912177 41260.570919 0.000000 0.000000 0.000000 0.000000 0.000000 42328.132223 99778.688006 0.000000 0.000000 0.000000 0.000000 0.000000 5585.867157 0.000000 0.000000 0.000000 0.000000 0.000000 0.000000 6151.331359 0.000000 0.000000 0.000000 0.000000 0.000000 0.000000 38228.909646 219219.960905 0.000000 0.000000 0.000000 0.000000 0.000000 44413.366676 410303.311846 0.000000 0.000000 0.000000 0.000000 0.000000 45113.470754 125323.362236 0.000000 0.000000 0.000000 0.000000 0.000000 10958.595912 0.000000 0.000000 0.000000 0.000000 0.000000 0.000000 4.983185 0.000000 0.000000 0.000000 0.000000 0.000000 0.000000 13792.273502 0.000000 0.000000 0.000000 0.000000 0.000000 0.000000 10383.577408 2287.782721 0.000000 0.000000 0.000000 0.000000 0.000000 3046.521748 0.000000 0.000000 0.000000 0.000000 0.000000 0.000000 36238.183373 1218.343563 0.000000 0.000000 0.000000 0.000000 0.000000 32036.872905 5684.767134 0.000000 0.000000 0.000000 0.000000 0.000000 1773.579393 0.000000 0.000000 0.000000 0.000000 0.000000 0.000000 0.000000 0.000000 0.000000 0.000000 0.000000 0.000000 0.000000 0.000000 0.000000 0.000000 0.000000 0.000000 0.000000 0.000000 6460.482004 10895.066389 0.000000 0.000000 0.000000 0.000000 0.000000 26459.370684 141041.044659 0.000000 0.000000 0.000000 0.000000 0.000000 22224.813416 101454.575956 0.000000 0.000000 0.000000 0.000000 0.000000 15753.427146 100652.843776 0.000000 0.000000 0.000000 0.000000 0.000000 3514.233437 25689.935219 0.000000 0.000000 0.000000 0.000000 0.000000 0.000000 4349.328178 0.000000 0.000000 0.000000 0.000000 0.000000 0.000000 0.000000 0.000000 0.000000 0.000000 0.000000 0.000000 0.000000 0.000000 0.000000 0.000000 0.000000 0.000000 0.000000 0.000000 0.000000 0.000000 0.000000 0.000000 0.000000 0.000000 0.000000 0.000000 0.000000 0.000000 0.000000 0.000000 0.000000 0.000000 0.000000 0.000000 0.000000 0.000000 0.000000 0.000000 0.000000 0.000000 0.000000 0.000000 0.000000 0.000000 0.000000 0.000000 0.000000 0.000000 0.000000 0.000000 0.000000 0.000000 2542.799490 0.000000 0.000000 0.000000 0.000000 0.000000 0.000000 17090.904048 68639.737115 0.000000 0.000000 0.000000 0.000000 0.000000 27746.812874 25109.468887 0.000000 0.000000 0.000000 0.000000 0.000000 62587.943887 62713.933764 0.000000 0.000000 0.000000 0.000000 0.000000 21786.460248 33615.000786 0.000000 16172.818949 46592.297640 20288.154677 0.000000 0.000000 0.000000 0.000000 0.000000 0.000000 0.000000 0.000000 0.000000 0.000000 0.000000 0.000000 0.000000 0.000000 0.000000 0.000000 0.000000 0.000000 0.000000 0.000000 0.000000 0.000000 0.000000 0.000000 0.000000 0.000000 0.000000 0.000000 0.000000 0.000000 0.000000 0.000000 0.000000 0.000000 0.000000 0.000000 0.000000 0.000000 0.000000 0.000000 0.000000 0.000000 0.000000 0.000000 0.000000 0.000000 0.000000 0.000000 0.000000 0.000000 0.000000 0.000000 0.000000 0.000000 0.000000 0.000000 0.000000 0.000000 0.000000 0.000000 0.000000 0.000000 0.000000 0.000000 0.000000 0.000000 0.000000 0.000000 0.000000 0.000000 0.000000 0.000000 0.000000 0.000000 0.000000 0.000000 0.000000 0.000000 0.000000 0.000000 0.000000 0.000000 0.000000 0.000000 0.000000 0.000000 0.000000 0.000000 0.000000 0.000000 0.000000 0.000000 0.000000 0.000000 0.000000 0.000000 0.000000 0.000000 0.000000 0.000000 0.000000 0.000000 0.000000 0.000000 0.000000 0.000000 0.000000 0.000000 0.000000 0.000000 0.000000 0.000000 0.000000 0.000000 0.000000 0.000000 0.000000 0.000000 0.000000 0.000000 0.000000 0.000000 0.000000 0.000000 0.000000 0.000000 0.000000 0.000000 0.000000 0.000000 0.000000 0.000000 0.000000 0.000000 0.000000 0.000000 0.000000 0.000000 0.000000 0.000000 0.000000 0.000000 0.000000 0.000000 0.000000 0.000000 0.000000 0.000000 0.000000 0.000000 0.000000 0.000000 0.000000 0.000000 0.000000 0.000000 0.000000 0.000000 0.000000 0.000000 0.000000 0.000000 0.000000
</DataArray>
<DataArray type="Float64" Name="Velocity" NumberOfComponents="3" format="ascii">