<VTKFile type="PolyData">
<PolyData>
<Piece NumberOfPoints="1840" NumberOfVerts="1840" NumberOfLines="0" NumberOfStrips="0" NumberOfPolys="0">
<PointData>
<DataArray type="Float64" Name="Pressure" format="ascii">
 0.000000 0.000000 0.000000 0.000000 0.000000 0.000000 0.000000 0.000000 0.000000 0.000000 0.000000 0.000000 0.000000 0.000000 0.000000 0.000000 0.000000 0.000000 0.000000 0.000000 0.000000 0.000000 0.000000 0.000000 0.000000 0.000000 0.000000 0.000000 0.000000 0.000000 0.000000 0.000000 0.000000 0.000000 0.000000 0.000000 0.000000 0.000000 0.000000 0.000000 0.000000 0.000000 0.000000 0.000000 0.000000 0.000000 0.000000 0.000000 0.000000 0.000000 0.000000 0.000000 0.000000 0.000000 0.000000 0.000000 0.000000 0.000000 0.000000 0.000000 0.000000 0.000000 0.000000 0.000000 0.000000 0.000000 0.000000 0.000000 0.000000 0.000000 0.000000 0.000000 0.000000 0.000000 0.000000 0.000000 0.000000 0.000000 0.000000 0.000000 0.000000 0.000000 0.000000 0.000000 0.000000 0.000000 0.000000 0.000000 0.000000 0.000000 0.000000 0.000000 0.000000 0.000000 0.000000 0.000000 0.000000 0.000000 0.000000 0.000000 0.000000 0.000000 0.000000 0.000000 0.000000 0.000000 0.000000 0.000000 0.000000 0.000000 0.000000 0.000000 0.000000 0.000000 0.000000 0.000000 0.000000 0.000000 2196.757399 3881.016630 928.854837 4697.701368 183.378859 0.000000 0.000000 0.000000 0.000000 0.000000 0.000000 0.000000 0.000000 0.000000 0.000000 0.000000 0.000000 0.000000 0.000000 0.000000 0.000000 0.000000 0.000000 0.000000 0.000000 0.000000 0.000000 0.000000 0.000000 0.000000 0.000000 0.000000 0.000000 0.000000 0.000000 0.000000 0.000000 0.000000 0.000000 0.000000 0.000000 0.000000 0.000000 0.000000 0.000000 0.000000 0.000000 0.000000 0.000000 0.000000 0.000000 0.000000 0.000000 0.000000 0.000000 2704.612868 10347.507858 16306.560931 0.000000 0.000000 20267.340981 0.000000 0.000000 0.000000 0.000000 0.000000 0.000000 0.000000 0.000000 0.000000 0.000000 0.000000 0.000000 0.000000 0.000000 0.000000 0.000000 0.000000 0.000000 0.000000 0.000000 0.000000 0.000000 0.000000 0.000000 0.000000 0.000000 0.000000 0.000000 0.000000 0.000000 0.000000 0.000000 0.000000 0.000000 0.000000 0.000000 0.000000 0.000000 0.000000 0.000000 0.000000 0.000000 0.000000 0.000000 0.000000 0.000000 0.000000 0.000000 0.000000 0.000000 0.000000 15689.103641 64131.905230 0.000000 0.000000 0.000000 42887.793474 0.000000 0.000000 0.000000 56835.416619 0.000000 0.000000 0.000000 0.000000 0.000000 50516.051556 36777.873346 54211.278886 0.000000 24083.719052 5502.508038 0.000000 9760.874615 0.000000 0.000000 28646.065422 0.000000 0.000000 7433.927442 3142.501357 0.000000 0.000000 2386.133702 8258.903419 31642.416544 0.000000 48362.667477 44616.463275 0.000000 0.000000 0.000000 0.000000 0.000000 0.000000 0.000000 0.000000 9618.662424 22766.719971 0.000000 0.000000 19875.706436 0.000000 50052.126344 0.000000 0.000000 0.000000 33804.326857 0.000000 151047.681678 0.000000 0.000000 40155.874649 0.000000 0.000000 0.000000 0.000000 0.000000 2443.215581 0.000000 9250.055947 69305.246517 4205.034988 0.000000 0.000000 0.000000 0.000000 0.000000 0.000000 71040.717031 87456.188605 6494.786991 0.000000 71961.307773 0.000000 0.000000 0.000000 82459.986574 0.000000 0.000000 0.000000 0.000000 0.000000 3568.331700 18180.605340 0.000000 4213.826473 53477.355761 0.000000 0.000000 0.000000 0.000000 23954.693611 31578.802296 0.000000 0.000000 0.000000 0.000000 0.000000 0.000000 0.000000 0.000000 0.000000 33714.558826 0.000000 0.000000 0.000000 0.000000 0.000000 26582.440218 0.000000 0.000000 0.000000 350.537119 0.000000 0.000000 91784.468152 0.000000 24748.194224 14410.582229 0.000000 11080.340401 0.000000 0.000000 0.000000 0.000000 0.000000 0.000000 0.000000 1097.586300 0.000000 0.000000 0.000000 12287.247788 0.000000 0.000000 252969.484095 14680.507361 0.000000 51571.826302 85586.798467 15421.602789 0.000000 0.000000 54492.854371 214352.862513 0.000000 0.000000 0.000000 135803.783361 0.000000 13632.337141 0.000000 0.000000 126274.553445 0.000000 2774.774146 0.000000 0.000000 0.000000 81697.532641 8085.612853 0.000000 24833.482529 0.000000 0.000000 16447.769903 0.000000 10122.629589 0.000000 0.000000 0.000000 0.000000 0.000000 0.000000 7329.900052 0.000000 0.000000 0.000000 0.000000 0.000000 0.000000 0.000000 0.000000 0.000000 94216.575815 0.000000 0.000000 0.000000 15711.295604 56574.351722 188378.156141 59715.682092 0.000000 0.000000 0.000000 0.000000 7581.664276 0.000000 168420.247971 172584.944313 0.000000 0.000000 0.000000 0.000000 0.000000 0.000000 0.000000 0.000000 0.000000 14106.129813 40909.675632 0.000000 222164.552496 0.000000 36653.593196 0.000000 0.000000 0.000000 0.000000 0.000000 49043.977811 8713.948577 0.000000 0.000000 136781.932443 187149.573524 431102.687529 0.000000 40182.783105 0.000000 5078.223968 0.000000 0.000000 6249.669182 0.000000 71039.461609 69747.208393 0.000000 0.000000 0.000000 195897.607123 237152.735786 0.000000 115468.293809 0.000000 0.000000 0.000000 4245.598123 0.000000 0.000000 4639.648183 0.000000 0.000000 0.000000 18945.404762 0.000000 61.809742 48224.926502 0.000000 0.000000 37889.076112 0.000000 0.000000 0.000000 0.000000 0.000000 26844.034145 0.000000 0.000000 399098.195991 0.000000 0.000000 172115.900992 0.000000 0.000000 464987.362010 0.000000 0.000000 185638.303981 0.000000 0.000000 26055.140584 0.000000 0.000000 0.000000 0.000000 135744.522569 4272.657210 0.000000 80663.293369 7797.002515 1071.939971 213412.247975 217201.886151 0.000000 0.000000 0.000000 0.000000 0.000000 0.000000 41083.335368 0.000000 0.000000 0.000000 0.000000 102515.538752 0.000000 0.000000 0.000000 0.000000 0.000000 0.000000 2148.890511 0.000000 0.000000 98408.952587 0.000000 0.000000 0.000000 117036.719145 0.000000 0.000000 0.000000 0.000000 160589.585375 0.000000 116493.728768 0.000000 17295.659027 0.000000 79497.598368 87697.267262 0.000000 133012.747888 52538.932867 0.000000 74441.663448 0.000000 0.000000 0.000000 24094.204217 0.000000 0.000000 339552.516773 0.000000 222766.753949 0.000000 143521.977128 0.000000 277530.723262 0.000000 74938.883795 0.000000 0.000000 0.000000 0.000000 0.000000 0.000000 31729.033080 7934.424021 0.000000 24281.772674 0.000000 0.000000 0.000000 0.000000 0.000000 29882.263835 0.000000 0.000000 0.000000 0.000000 0.000000 51151.842609 0.000000 0.000000 562522.217783 99621.933636 0.000000 0.000000 166547.999292 23406.926279 37138.662723 0.000000 0.000000 454001.612183 0.000000 0.000000 0.000000 0.000000 0.000000 0.000000 0.000000 0.000000 0.000000 0.000000 0.000000 0.000000 0.000000 0.000000 0.000000 0.000000 0.000000 0.000000 55792.093848 33665.813443 0.000000 69682.519382 0.000000 0.000000 226419.912822 47011.747224 0.000000 208745.248345 0.000000 0.000000 35424.644915 349433.104707 0.000000 0.000000 0.000000 0.000000 85312.346512 0.000000 0.000000 285632.395484 0.000000 0.000000 345118.515055 148266.393015 0.000000 232547.272530 0.000000 18722.794833 70829.285722 27440.585106 0.000000 0.000000 0.000000 111972.803015 0.000000 0.000000 246909.645233 0.000000 0.000000 0.000000 0.000000 0.000000 0.000000 0.000000 9359.308477 0.000000 0.000000 0.000000 121536.848854 277017.839443 13041.902474 27257.425967 0.000000 0.000000 0.000000 26468.706074 429377.621877 0.000000 0.000000 118446.009258 0.000000 0.000000 0.000000 0.000000 0.000000 0.000000 372141.611133 0.000000 0.000000 0.000000 0.000000 419773.806807 0.000000 220328.019993 0.000000 55979.948443 183945.974862 18580.902479 0.000000 69229.728252 78183.824507 0.000000 0.000000 0.000000 57654.263425 0.000000 0.000000 0.000000 0.000000 0.000000 1893.778886 0.000000 0.000000 0.000000 0.000000 0.000000 164150.824880 0.000000 0.000000 73587.912771 154995.607085 221457.706438 14185.954316 0.000000 0.000000 0.000000 6364.621209 0.000000 0.000000 45063.944320 108189.537744 0.000000 0.000000 0.000000 0.000000 0.000000 388453.348730 27200.585887 0.000000 0.000000 0.000000 0.000000 0.000000 0.000000 48803.478101 0.000000 0.000000 0.000000 128329.171521 0.000000 320388.550528 0.000000 0.000000 0.000000 0.000000 0.000000 17981.192505 30310.062025 0.000000 0.000000 0.000000 0.000000 0.000000 43628.143773 0.000000 0.000000 0.000000 0.000000 14600.623803 0.000000 0.000000 33204.545135 0.000000 134156.605616 0.000000 0.000000 0.000000 0.000000 0.000000 377132.492161 0.000000 0.000000 0.000000 0.000000 253051.361099 0.000000 238163.043491 593750.196634 0.000000 0.000000 75998.704152 123302.503822 276355.052971 438578.753779 597453.859814 0.000000 0.000000 0.000000 0.000000 0.000000 0.000000 0.000000 53729.391062 88786.739582 153970.143471 273524.700929 0.000000 0.000000 360044.458959 0.000000 303350.144612 0.000000 54227.666253 0.000000 100926.022239 298973.421627 0.000000 0.000000 165867.987568 396919.333744 0.000000 0.000000 21171.538137 0.000000 199627.752441 0.000000 0.000000 77799.254955 63966.176900 173276.818613 0.000000 186338.730431 37919.765949 0.000000 0.000000 0.000000 169176.909793 0.000000 0.000000 131559.406969 25463.285952 0.000000 0.000000 0.000000 0.000000 0.000000 0.000000 0.000000 19304.149222 30354.395474 0.000000 0.000000 0.000000 0.000000 0.000000 0.000000 274006.449526 0.000000 0.000000 0.000000 55744.680312 0.000000 0.000000 62329.630968 0.000000 39023.978148 243910.614736 0.000000 0.000000 0.000000 0.000000 0.000000 84183.599426 55767.974035 98043.691417 0.000000 0.000000 349597.483691 0.000000 198019.125142 183220.194025 0.000000 30088.683002 17316.913143 87448.185894 11181.139365 0.000000 0.000000 0.000000 0.000000 0.000000 0.000000 0.000000 0.000000 1172.703491 10786.990883 54384.196404 561148.358807 45706.805155 0.000000 0.000000 197127.753294 183649.422353 0.000000 0.000000 0.000000 0.000000 0.000000 7169.358551 0.000000 0.000000 0.000000 0.000000 0.000000 425680.660820 0.000000 7217.923857 17791.901044 0.000000 0.000000 189203.931381 0.000000 0.000000 0.000000 0.000000 0.000000 8973.476608 0.000000 0.000000 323158.093429 0.000000 0.000000 0.000000 0.000000 0.000000 0.000000 0.000000 0.000000 0.000000 0.000000 2547.818715 41549.789028 9114.264568 106110.786291 0.000000 0.000000 0.000000 0.000000 0.000000 0.000000 0.000000 0.000000 180258.391643 0.000000 0.000000 0.000000 194818.871053 33744.942508 246234.254524 0.000000 0.000000 0.000000 181086.896407 0.000000 0.000000 0.000000 0.000000 0.000000 8185.917779 0.000000 151189.272091 20800.806919 0.000000 2692.709629 0.000000 44605.341005 80969.109972 341105.960629 0.000000 0.000000 0.000000 0.000000 0.000000 0.000000 0.000000 0.000000 12170.344634 99874.784025 0.000000 0.000000 0.000000 260284.399295 0.000000 0.000000 0.000000 0.000000 0.000000 165529.656623 6073.579168 0.000000 0.000000 0.000000 0.000000 160196.154272 0.000000 127926.565605 3402.908225 0.000000 0.000000 0.000000 0.000000 48990.636993 0.000000 0.000000 8955.284401 85049.825291 0.000000 0.000000 71338.002372 0.000000 0.000000 0.000000 0.000000 290735.666374 61048.799881 0.000000 0.000000 0.000000 0.000000 0.000000 0.000000 0.000000 30830.275602 139763.064704 0.000000 0.000000 0.000000 0.000000 0.000000 225095.916433 0.000000 0.000000 0.000000 152303.195784 0.000000 0.000000 0.000000 29010.188682 0.000000 398939.368923 0.000000 95888.498671 8494.764829 0.000000 0.000000 275677.144326 0.000000 507843.558676 3778.588846 149299.429794 0.000000 0.000000 0.000000 0.000000 0.000000 0.000000 0.000000 0.000000 0.000000 38838.036915 0.000000 45658.937396 0.000000 0.000000 0.000000 0.000000 0.000000 0.000000 16015.677906 18991.585353 0.000000 0.000000 0.000000 0.000000 0.000000 16684.846872 25447.730502 0.000000 0.000000 0.000000 0.000000 0.000000 27646.017333 83107.930435 0.000000 0.000000 0.000000 0.000000 0.000000 12161.110133 17482.610199 0.000000 0.000000 0.000000 0.000000 0.000000 11260.891732 47456.837356 0.000000 0.000000 0.000000 0.000000 0.000000 2917.388361 9252.407539 0.000000 0.000000 0.000000 0.000000 0.000000 8425.546089 17738.657598 0.000000 0.000000 0.000000 0.000000 0.000000 4236.806969 10480.136981 0.000000 0.000000 0.000000 0.000000 0.000000 0.000000 782.226283 0.000000 0.000000 0.000000 0.000000 0.000000 0.000000 0.000000 0.000000 0.000000 0.000000 0.000000 0.000000 0.000000 0.000000 0.000000 0.000000 0.000000 0.000000 0.000000 4676.422686 0.000000 0.000000 0.000000 0.000000 0.000000 0.000000 19812.166006 78468.533670 0.000000 0.000000 0.000000 0.000000 0.000000 7668.210849 67429.535149 0.000000 0.000000 0.000000 0.000000 0.000000 0.000000 0.000000 0.000000 0.000000 0.000000 0.000000 0.000000 0.000000 0.000000 0.000000 0.000000 0.000000 0.000000 0.000000 4000.524729 0.000000 0.000000 0.000000 0.000000 0.000000 0.000000 33005.394690 81534.145053 0.000000 0.000000 0.000000 0.000000 0.000000 33297.564203 120701.679697 0.000000 0.000000 0.000000 0.000000 0.000000 28375.161721 187305.280080 0.000000 0.000000 0.000000 0.000000 0.000000 47486.981293 121693.435896 0.000000 0.000000 0.000000 0.000000 0.000000 53917.565489 63523.244057 0.000000 0.000000 0.000000 0.000000 0.000000 6643.018430 0.000000 0.000000 0.000000 0.000000 0.000000 0.000000 3028.356406 0.000000 0.000000 0.000000 0.000000 0.000000 0.000000 25590.979075 32180.560109 0.000000 0.000000 0.000000 0.000000 0.000000 12863.128451 0.000000 0.000000 0.000000 0.000000 0.000000 0.000000 0.000000 0.000000 0.000000 0.000000 0.000000 0.000000 0.000000 3259.632632 0.000000 0.000000 0.000000 0.000000 0.000000 0.000000 4488.013566 17558.575538 0.000000 0.000000 0.000000 0.000000 0.000000 5663.314883 16842.663486 0.000000 0.000000 0.000000 0.000000 0.000000 2817.368826 0.000000 0.000000 0.000000 0.000000 0.000000 0.000000 0.000000 0.000000 0.000000 0.000000 0.000000 0.000000 0.000000 0.000000 0.000000 0.000000 0.000000 0.000000 0.000000 0.000000 4052.696656 0.000000 0.000000 0.000000 0.000000 0.000000 0.000000 20402.125023 23062.729018 0.000000 0.000000 0.000000 0.000000 0.000000 39959.828801 56944.097608 0.000000 0.000000 0.000000 0.000000 0.000000 47611.950637 124803.727802 0.000000 0.000000 0.000000 0.000000 0.000000 60081.149446 245121.824650 0.000000 0.000000 0.000000 0.000000 0.000000 33353.506867 59850.834865 0.000000 0.000000 0.000000 0.000000 0.000000 5174.503986 0.000000 0.000000 0.000000 0.000000 0.000000 0.000000 3999.779873 0.000000 0.000000 0.000000 0.000000 0.000000 0.000000 2221.639391 9303.334095 0.000000 0.000000 0.000000 0.000000 0.000000 5209.104401 43954.518770 0.000000 0.000000 0.000000 0.000000 0.000000 5155.087653 28444.541271 0.000000 0.000000 0.000000 0.000000 0.000000 9559.788945 5207.036448 0.000000 0.000000 0.000000 0.000000 0.000000 17591.800278 86270.328889 0.000000 0.000000 0.000000 0.000000 0.000000 5080.760232 7821.672342 0.000000 0.000000 0.000000 0.000000 0.000000 0.000000 0.000000 0.000000 0.000000 0.000000 0.000000 0.000000 9045.396384 0.000000 0.000000 0.000000 0.000000 0.000000 0.000000 43837.267288 61192.991410 0.000000 0.000000 0.000000 0.000000 0.000000 37305.273964 160717.613157 0.000000 0.000000 0.000000 0.000000 0.000000 36285.397452 281553.729775 0.000000 0.000000 0.000000 0.000000 0.000000 11340.852660 55367.116538 0.000000 0.000000 0.000000 0.000000 0.000000 23683.870853 71997.433780 0.000000 0.000000 0.000000 0.000000 0.000000 65268.398868 328919.873960 0.000000 0.000000 0.000000 0.000000 0.000000 38040.024055 241836.597459 0.000000 0.000000 0.000000 0.000000 0.000000 21961.560312 133976.558539 0.000000 0.000000 0.000000 0.000000 0.000000 63962.014064 418546.851801 0.000000 0.000000 0.000000 0.000000 0.000000 61976.740486 429568.982879 0.000000 0.000000 0.000000 0.000000 0.000000 13169.538837 66776.198174 0.000000 0.000000 0.000000 0.000000 0.000000 13308.556245 74112.734043 0.000000 0.000000 0.000000 0.000000 0.000000 56531.605376 277782.188368 0.000000 0.000000 0.000000 0.000000 0.000000 85203.507247 413136.106613 0.000000 0.000000 0.000000 0.000000 0.000000 118260.884636 685011.327358 0.000000 0.000000 0.000000 0.000000 0.000000 57284.184557 194458.802005 0.000000 0.000000 0.000000 0.000000 0.000000 18483.694870 80419.300691 0.000000 0.000000 0.000000 0.000000 0.000000 13101.923554 34340.911624 0.000000 0.000000 0.000000 0.000000 0.000000 16481.618899 14293.689756 0.000000 0.000000 0.000000 0.000000 0.000000 32898.160798 101883.359910 0.000000 0.000000 0.000000 0.000000 0.000000 8632.463242 26363.361894 0.000000 0.000000 0.000000 0.000000 0.000000 19214.228837 117113.700496 0.000000 0.000000 0.000000 0.000000 0.000000 59294.530960 405800.787062 0.000000 0.000000 0.000000 0.000000 0.000000 51188.097463 172275.252231 0.000000 0.000000 0.000000 0.000000 0.000000 46165.218037 100791.196061 0.000000 0.000000 0.000000 0.000000 0.000000 50888.953852 161109.545772 0.000000 0.000000 0.000000 0.000000 0.000000 41266.580126 267467.378632 0.000000 0.000000 0.000000 0.000000 0.000000 28740.477883 341952.197184 0.000000 0.000000 0.000000 0.000000 0.000000 49475.323709 415147.551448 0.000000 0.000000 0.000000 0.000000 0.000000 86979.119507 259436.693808 0.000000 0.000000 0.000000 0.000000 0.000000 96903.422238 327973.002535 0.000000 0.000000 0.000000 0.000000 0.000000 53387.191067 222583.328887 0.000000 0.000000 0.000000 0.000000 0.000000 7602.577522 31528.892436 0.000000 0.000000 37582.563404 0.000000 0.000000 0.000000 0.000000 0.000000 0.000000 0.000000 0.000000 35157.024333 0.000000 0.000000 0.000000 0.000000 0.000000 0.000000 0.000000 0.000000 0.000000 0.000000 0.000000 0.000000 0.000000 0.000000 0.000000 0.000000 0.000000 0.000000 0.000000 0.000000 0.000000 0.000000 0.000000 0.000000 0.000000 0.000000 0.000000 0.000000 0.000000 0.000000 0.000000 0.000000 0.000000 0.000000 0.000000 0.000000 0.000000 0.000000 0.000000 0.000000 0.000000 0.000000 0.000000 0.000000 0.000000 0.000000 0.000000 0.000000 0.000000 0.000000 0.000000 0.000000 0.000000 0.000000 0.000000 0.000000 0.000000 0.000000 0.000000 0.000000 0.000000 0.000000 0.000000 0.000000 0.000000 0.000000 0.000000 0.000000 0.000000 0.000000 0.000000 0.000000 0.000000 0.000000 0.000000 0.000000 0.000000 0.000000 0.000000 0.000000 0.000000 0.000000 0.000000 0.000000 0.000000 0.000000 0.000000 0.000000 0.000000 0.000000 0.000000 0.000000 0.000000 0.000000 0.000000 0.000000 0.000000 0.000000 0.000000 0.000000 0.000000 0.000000 0.000000 0.000000 0.000000 0.000000 0.000000 0.000000 0.000000 0.000000 0.000000 0.000000 0.000000 0.000000 0.000000 0.000000 0.000000 0.000000 0.000000 0.000000 0.000000 0.000000 0.000000 0.000000 0.000000 0.000000 0.000000 0.000000 0.000000 0.000000 0.000000 0.000000 0.000000 0.000000 0.000000 0.000000 0.000000 0.000000 0.000000 0.000000 0.000000 0.000000 0.000000 0.000000 0.000000 0.000000 0.000000 0.000000 0.000000 0.000000 0.000000 0.000000 0.000000 0.000000 0.000000
</DataArray>
<DataArray type="Float64" Name="Velocity" NumberOfComponents="3" format="ascii">