<VTKFile type="PolyData">
<PolyData>
<Piece NumberOfPoints="1840" NumberOfVerts="1840" NumberOfLines="0" NumberOfStrips="0" NumberOfPolys="0">
<PointData>
<DataArray type="Float64" Name="Pressure" format="ascii">
 0.000000 0.000000 0.000000 0.000000 0.000000 0.000000 0.000000 0.000000 0.000000 0.000000 0.000000 0.000000 0.000000 0.000000 0.000000 0.000000 0.000000 0.000000 0.000000 0.000000 0.000000 0.000000 0.000000 0.000000 0.000000 0.000000 0.000000 0.000000 0.000000 0.000000 0.000000 0.000000 0.000000 0.000000 0.000000 0.000000 0.000000 0.000000 0.000000 0.000000 0.000000 0.000000 0.000000 0.000000 0.000000 0.000000 0.000000 0.000000 0.000000 0.000000 0.000000 0.000000 0.000000 0.000000 0.000000 0.000000 0.000000 0.000000 0.000000 0.000000 0.000000 0.000000 0.000000 0.000000 0.000000 0.000000 0.000000 0.000000 0.000000 0.000000 0.000000 0.000000 0.000000 0.000000 0.000000 0.000000 0.000000 0.000000 0.000000 0.000000 0.000000 0.000000 0.000000 0.000000 0.000000 0.000000 0.000000 0.000000 0.000000 0.000000 0.000000 0.000000 0.000000 0.000000 0.000000 0.000000 0.000000 0.000000 0.000000 0.000000 0.000000 0.000000 0.000000 0.000000 0.000000 0.000000 0.000000 0.000000 0.000000 0.000000 0.000000 0.000000 0.000000 0.000000 0.000000 0.000000 19398.484942 65290.437115 26014.429727 16529.783503 10875.807708 1944.939855 2458.338693 0.000000 0.000000 0.000000 0.000000 0.000000 0.000000 0.000000 0.000000 0.000000 0.000000 0.000000 0.000000 0.000000 0.000000 0.000000 0.000000 0.000000 0.000000 0.000000 0.000000 0.000000 0.000000 0.000000 0.000000 0.000000 0.000000 0.000000 0.000000 0.000000 0.000000 0.000000 0.000000 0.000000 0.000000 0.000000 0.000000 0.000000 0.000000 0.000000 0.000000 0.000000 0.000000 0.000000 0.000000 0.000000 0.000000 0.000000 0.000000 0.000000 0.000000 60545.491674 218974.039949 35201.287479 35122.917466 18851.289474 0.000000 0.000000 0.000000 0.000000 0.000000 0.000000 0.000000 0.000000 0.000000 0.000000 0.000000 0.000000 0.000000 0.000000 0.000000 0.000000 0.000000 0.000000 0.000000 0.000000 0.000000 0.000000 0.000000 0.000000 0.000000 0.000000 0.000000 0.000000 0.000000 0.000000 0.000000 0.000000 0.000000 0.000000 0.000000 0.000000 0.000000 0.000000 0.000000 0.000000 0.000000 0.000000 0.000000 0.000000 0.000000 0.000000 0.000000 0.000000 0.000000 0.000000 0.000000 0.000000 29707.619389 81530.764030 213868.734085 66813.467281 44418.508861 211150.871988 16040.970353 76270.744873 28825.660199 30845.263952 52973.116867 0.000000 0.000000 38167.408195 0.000000 48430.704410 76715.310825 10331.696459 15581.875811 61263.592560 0.000000 53594.319867 9694.108537 12615.983085 0.000000 0.000000 82491.794662 0.000000 98100.782813 25870.637498 0.000000 7719.080841 0.000000 15007.723277 4469.530463 0.000000 0.000000 0.000000 0.000000 0.000000 0.000000 0.000000 0.000000 0.000000 0.000000 0.000000 34882.859482 89654.607515 104535.496960 25469.044216 93470.303617 32588.148035 17130.265579 54280.029840 92764.316026 6476.869685 44244.061679 25689.420532 47125.927704 66332.272280 87305.758763 68175.595801 68712.143393 29544.716441 79705.035826 0.000000 40909.745183 30148.424338 19424.215057 512.632820 0.000000 426.645671 0.000000 23284.953572 0.000000 0.000000 0.000000 31052.599930 29794.116414 25916.289741 0.000000 20567.706003 0.000000 0.000000 0.000000 0.000000 0.000000 0.000000 0.000000 0.000000 0.000000 0.000000 64211.154694 223182.424383 59490.153442 31720.934356 43106.669573 84761.526454 19533.995236 47298.267578 79123.549547 39470.345143 83196.605436 53707.613257 92305.616945 63271.433321 43133.205458 19175.837594 45559.198831 17380.106313 60884.264784 30619.299940 32948.950812 54651.128688 11601.911307 40674.246212 10003.039509 11059.564704 79046.610642 54839.075080 47489.586086 0.000000 0.000000 35286.145106 0.000000 0.000000 0.000000 8376.037456 0.000000 0.000000 0.000000 0.000000 0.000000 0.000000 0.000000 0.000000 0.000000 0.000000 23772.583423 102294.715861 50925.329139 89345.107095 109653.628997 27295.007336 60842.958839 129168.612665 91314.310555 11620.047376 70053.703781 116541.070880 66857.632732 52029.457076 93919.365697 86487.244928 40573.584304 81106.662451 58969.584497 44134.478248 42786.007667 69081.188339 1331.844085 8075.068325 75725.515160 0.000000 82446.395404 19123.721007 73947.088742 7642.356996 1067.170041 0.000000 0.000000 25686.485509 0.000000 0.000000 31824.866764 35938.048014 9966.342070 0.000000 0.000000 0.000000 0.000000 0.000000 0.000000 0.000000 34173.646636 78681.033644 81938.386576 95464.907633 60445.920209 91920.216178 40488.419186 94462.667075 96656.167806 65247.292662 77898.738595 44544.583709 44934.181643 182473.333276 63433.736200 73879.305030 92818.553516 66121.889465 51677.853819 12737.650696 36497.295170 40455.859953 49403.499802 54745.409173 4892.003742 6088.975006 80658.046702 13487.726395 44491.756263 42661.431661 34328.533769 52418.472465 0.000000 0.000000 17532.981159 0.000000 0.000000 10459.811353 0.000000 0.000000 32290.098824 0.000000 0.000000 0.000000 0.000000 0.000000 50941.314060 99298.562252 159138.399579 26886.451188 157828.978106 21916.170537 124255.914954 95090.182861 169579.637147 37331.437969 165199.540903 37288.971138 57603.515209 58347.892334 15794.544085 0.000000 29388.472639 83002.407480 77593.415442 55323.985152 0.000000 32518.622781 40308.387828 13025.789700 25400.808328 94965.959788 44914.767394 49096.571716 44858.367489 22639.903341 18602.249851 28879.972948 0.000000 34165.823174 48409.018370 54762.493429 0.000000 0.000000 31505.073256 51524.856695 0.000000 0.000000 0.000000 0.000000 0.000000 0.000000 26275.213636 72065.522559 108395.810397 77587.301675 131687.496161 101491.084022 54427.217239 134970.834140 91278.438923 120726.880834 151307.790300 109315.995402 72919.358999 134756.133669 88051.735746 162664.839092 22758.285814 46988.999384 59260.201518 76714.703211 52704.933385 48562.061959 91002.518376 68233.525941 15136.850971 71305.960806 14970.162221 0.000000 124690.383912 91771.232743 42095.049339 20858.983402 37444.980728 0.000000 0.000000 0.000000 0.000000 0.000000 41961.272682 0.000000 18638.685188 0.000000 0.000000 0.000000 0.000000 0.000000 28745.078014 95470.194114 49953.989046 23583.646252 49521.647426 74804.786512 90199.266225 151108.379893 25866.144742 88668.347767 78806.928896 68777.999258 82681.673816 48107.304386 38505.984306 76826.699753 1816.685792 59763.656690 88703.360923 71715.124437 36538.209484 40039.401392 0.000000 155858.756213 63347.865453 51907.820719 50825.495143 180.161070 99598.438159 49226.080816 77300.531872 14891.854651 10100.206972 3289.398054 20168.759656 9801.882031 544.219450 0.000000 17461.217301 0.000000 20104.132056 0.000000 0.000000 0.000000 0.000000 0.000000 14050.189673 53777.241896 51316.563817 23459.401762 0.000000 59229.546472 19916.284347 67459.812812 15185.291875 90642.869729 57119.994203 0.000000 77443.665538 99330.664456 0.000000 110234.210709 24109.806166 46364.361795 96934.618468 25630.417437 38007.365715 54041.269070 29801.172462 63175.519627 35096.753467 94884.552587 65505.809716 10745.617800 33541.644705 0.000000 78013.548001 47310.236957 0.000000 0.000000 36291.814679 10485.897552 62134.622831 23859.214336 0.000000 0.000000 24454.682166 0.000000 0.000000 0.000000 0.000000 0.000000 7314.869709 61499.968192 109369.711881 0.000000 117523.641532 41378.707727 219732.137703 74521.420729 0.000000 41017.692670 42139.443543 90565.554000 41855.976737 87332.547133 38529.513820 48438.052235 30725.637315 28365.428991 57908.917891 40881.520217 50097.162287 58915.279755 29669.037612 53687.648851 0.000000 0.000000 52617.899597 30219.240217 130816.797298 0.000000 0.000000 64003.017967 0.000000 0.000000 61430.054929 0.000000 32004.417178 17133.010938 7774.263153 0.000000 0.000000 0.000000 0.000000 0.000000 0.000000 0.000000 17025.551836 75148.594947 41818.425931 82280.225421 0.000000 215903.642246 92276.834705 81649.576606 0.000000 207772.727395 58135.576462 36628.650613 0.000000 107769.667726 28254.230193 51108.256962 11602.453751 25857.180935 20663.252564 49696.191816 21585.963938 10376.070076 27624.135796 22696.347610 14202.787399 0.000000 0.000000 59669.681779 5941.261727 5240.597166 61463.790959 0.000000 30855.176771 34146.061236 104793.352029 0.000000 0.000000 28008.044971 35013.362165 15051.023965 8248.499290 0.000000 0.000000 0.000000 0.000000 0.000000 27293.777480 82588.650219 305322.023927 195623.949427 240307.982867 0.000000 142536.788702 0.000000 0.000000 47851.468698 0.000000 0.000000 0.000000 266527.944246 26619.071552 28714.146315 92689.319017 49289.335326 32378.127358 42567.430990 24039.914681 0.000000 86888.601622 0.000000 50956.760328 20241.511853 0.000000 60426.595118 0.000000 35281.988810 14729.615568 0.000000 0.000000 0.000000 141960.556420 0.000000 0.000000 26994.048264 44622.532286 0.000000 35617.583123 0.000000 0.000000 0.000000 0.000000 0.000000 24681.469203 67245.940700 375318.629040 106266.163406 190728.245911 249659.619126 68860.576590 110597.950381 377076.371480 395712.189218 353741.411304 141131.525844 0.000000 21776.542394 0.000000 0.000000 0.000000 150386.038790 0.000000 25787.874262 79073.505910 0.000000 12400.932420 115331.132581 14742.074574 0.000000 8300.442815 4428.301177 55495.960554 38518.610739 6771.171735 63134.736612 33790.751633 94052.416688 4800.783976 0.000000 82212.972193 0.000000 21822.225770 0.000000 2534.335589 0.000000 0.000000 0.000000 0.000000 0.000000 43794.606246 122875.940174 380239.676707 78374.531137 381887.807019 540331.319460 245941.056454 395285.778010 1300.507990 562456.740312 168933.921321 318090.409467 317833.906780 121377.266595 325825.450179 56425.660610 0.000000 92183.551725 0.000000 0.000000 0.000000 0.000000 0.000000 0.000000 240900.061358 468179.774244 6974.692445 44714.377826 8441.238164 0.000000 0.000000 44755.789242 24836.405598 46068.093021 30626.921579 27160.011132 72909.737401 29619.655925 0.000000 0.000000 29391.425884 0.000000 0.000000 0.000000 0.000000 0.000000 39823.717404 87203.718324 326340.314523 411348.898011 852023.267478 293311.521828 647495.273324 55795.018566 83910.102504 424939.793278 460750.783673 759616.916154 491311.071975 0.000000 206968.810030 255727.271337 47053.621301 0.000000 14040.187027 42920.254389 0.000000 0.000000 117089.707199 0.000000 0.000000 0.000000 0.000000 169886.740658 62926.425383 0.000000 60034.802044 40222.840854 0.000000 12636.153690 48820.735072 42686.200106 0.000000 0.000000 22209.578101 0.000000 0.000000 0.000000 0.000000 0.000000 0.000000 0.000000 63215.140245 114429.134009 1530.922434 121096.276669 353408.813173 245520.624780 501619.068193 269516.593794 214187.472513 132799.537773 28916.471450 848923.936545 183916.116174 155024.649245 177092.884244 402170.546041 257378.728519 0.000000 408490.078930 761304.332234 0.000000 50731.817520 232930.921210 386589.242853 0.000000 0.000000 67868.299913 0.000000 0.000000 0.000000 0.000000 43076.523914 46579.098500 52306.167751 23661.713276 0.000000 0.000000 0.000000 16883.349444 31300.572349 24098.145292 0.000000 0.000000 0.000000 0.000000 0.000000 24648.464680 41983.688144 0.000000 0.000000 0.000000 511992.601167 0.000000 0.000000 0.000000 0.000000 0.000000 154817.019772 0.000000 0.000000 295592.494085 214913.170902 272545.677131 373348.824348 223839.753784 158996.393787 248742.826904 16217.402441 304755.218096 293314.969193 79832.971738 0.000000 719.468359 340906.638465 115148.347676 0.000000 0.000000 0.000000 0.000000 0.000000 78419.501807 29225.095414 42443.600780 1697.757458 31207.348287 0.000000 5389.918903 0.000000 0.000000 0.000000 0.000000 0.000000 28790.875963 111996.479558 111018.473842 0.000000 0.000000 0.000000 329701.557616 329701.557616 0.000000 529019.357666 0.000000 330472.223707 0.000000 0.000000 82205.583411 0.000000 87985.392395 0.000000 305524.993372 6323.144254 96333.113831 0.000000 54618.476693 5559.432569 0.000000 0.000000 0.000000 0.000000 191535.016163 0.000000 260157.572488 0.000000 0.000000 0.000000 0.000000 19895.681169 68905.701783 0.000000 0.000000 30561.507971 0.000000 0.000000 0.000000 0.000000 0.000000 0.000000 51005.644127 179285.625142 495927.349317 0.000000 0.000000 0.000000 0.000000 226435.623163 0.000000 0.000000 158313.726258 0.000000 10278.244046 0.000000 21680.123398 0.000000 566804.558792 0.000000 0.000000 0.000000 0.000000 0.000000 0.000000 0.000000 0.000000 78502.290260 0.000000 198.499502 207546.571276 44246.244509 0.000000 33174.586688 224199.143141 0.000000 0.000000 37343.826922 0.000000 0.000000 0.000000 44488.870443 46285.082728 0.000000 0.000000 0.000000 0.000000 0.000000 23533.017894 95920.144366 0.000000 0.000000 0.000000 0.000000 0.000000 26495.530275 89109.353150 0.000000 0.000000 0.000000 0.000000 0.000000 18753.070763 75374.254110 0.000000 0.000000 0.000000 0.000000 0.000000 22382.528690 105135.737837 0.000000 0.000000 0.000000 0.000000 0.000000 26476.943744 103367.420178 0.000000 0.000000 0.000000 0.000000 0.000000 27137.748848 134761.976331 0.000000 0.000000 0.000000 0.000000 0.000000 37762.943927 158668.583234 0.000000 0.000000 0.000000 0.000000 0.000000 36891.840985 131216.946441 0.000000 0.000000 0.000000 0.000000 0.000000 33512.132389 83968.576847 0.000000 0.000000 0.000000 0.000000 0.000000 48111.439841 114955.854811 0.000000 0.000000 0.000000 0.000000 0.000000 58000.814823 153692.862634 0.000000 0.000000 0.000000 0.000000 0.000000 14519.414454 79923.058473 0.000000 0.000000 0.000000 0.000000 0.000000 17927.241632 93023.880885 0.000000 0.000000 0.000000 0.000000 0.000000 33601.777871 103574.229371 0.000000 0.000000 0.000000 0.000000 0.000000 22020.440733 90260.911272 0.000000 0.000000 0.000000 0.000000 0.000000 38822.847978 131775.241620 0.000000 0.000000 0.000000 0.000000 0.000000 33877.867747 124717.734782 0.000000 0.000000 0.000000 0.000000 0.000000 36042.820863 93627.398598 0.000000 0.000000 0.000000 0.000000 0.000000 61677.301822 161334.911444 0.000000 0.000000 0.000000 0.000000 0.000000 33476.277398 95818.610845 0.000000 0.000000 0.000000 0.000000 0.000000 51336.672328 104687.365675 0.000000 0.000000 0.000000 0.000000 0.000000 31279.470073 84441.458079 0.000000 0.000000 0.000000 0.000000 0.000000 17691.786358 91932.306261 0.000000 0.000000 0.000000 0.000000 0.000000 55637.450652 147278.599428 0.000000 0.000000 0.000000 0.000000 0.000000 40497.411087 98380.363565 0.000000 0.000000 0.000000 0.000000 0.000000 34393.372775 126369.224002 0.000000 0.000000 0.000000 0.000000 0.000000 61371.553546 117054.838250 0.000000 0.000000 0.000000 0.000000 0.000000 27164.668853 41337.488516 0.000000 0.000000 0.000000 0.000000 0.000000 13169.804650 52917.127286 0.000000 0.000000 0.000000 0.000000 0.000000 34844.506377 108262.828355 0.000000 0.000000 0.000000 0.000000 0.000000 25900.113803 93524.508847 0.000000 0.000000 0.000000 0.000000 0.000000 9170.948181 75871.548018 0.000000 0.000000 0.000000 0.000000 0.000000 14509.378335 100928.220700 0.000000 0.000000 0.000000 0.000000 0.000000 37328.859676 107084.373300 0.000000 0.000000 0.000000 0.000000 0.000000 22208.937448 69179.163453 0.000000 0.000000 0.000000 0.000000 0.000000 26033.168504 71816.558005 0.000000 0.000000 0.000000 0.000000 0.000000 32268.208060 58698.711087 0.000000 0.000000 0.000000 0.000000 0.000000 63198.448310 144616.387292 0.000000 0.000000 0.000000 0.000000 0.000000 27849.938367 70053.957438 0.000000 0.000000 0.000000 0.000000 0.000000 5662.975976 12864.933117 0.000000 0.000000 0.000000 0.000000 0.000000 22848.226047 81762.041751 0.000000 0.000000 0.000000 0.000000 0.000000 18759.724450 74057.395544 0.000000 0.000000 0.000000 0.000000 0.000000 19515.179365 80453.143399 0.000000 0.000000 0.000000 0.000000 0.000000 12901.521648 46208.271404 0.000000 0.000000 0.000000 0.000000 0.000000 28883.864717 59333.464497 0.000000 0.000000 0.000000 0.000000 0.000000 29099.862118 84473.380444 0.000000 0.000000 0.000000 0.000000 0.000000 8131.046626 67945.711198 0.000000 0.000000 0.000000 0.000000 0.000000 10705.464684 48249.631333 0.000000 0.000000 0.000000 0.000000 0.000000 23800.761403 135626.780814 0.000000 0.000000 0.000000 0.000000 0.000000 16778.713339 96808.805903 0.000000 0.000000 0.000000 0.000000 0.000000 6873.252590 23570.871726 0.000000 0.000000 0.000000 0.000000 0.000000 11956.957531 80701.450211 0.000000 0.000000 0.000000 0.000000 0.000000 13443.925565 127719.002144 0.000000 0.000000 0.000000 0.000000 0.000000 8987.637161 109542.136549 0.000000 0.000000 0.000000 0.000000 0.000000 10723.064302 180493.623484 0.000000 0.000000 0.000000 0.000000 0.000000 36592.535499 342234.428210 0.000000 0.000000 0.000000 0.000000 0.000000 28204.265486 99313.808731 0.000000 0.000000 0.000000 0.000000 0.000000 10871.675086 41907.201603 0.000000 0.000000 0.000000 0.000000 0.000000 22659.230917 77992.475090 0.000000 0.000000 0.000000 0.000000 0.000000 54239.444139 102771.596093 0.000000 0.000000 0.000000 0.000000 0.000000 44957.131206 187022.448590 0.000000 0.000000 0.000000 0.000000 0.000000 41329.462594 209396.461883 0.000000 0.000000 0.000000 0.000000 0.000000 44115.272619 104510.833590 0.000000 0.000000 0.000000 0.000000 0.000000 48961.640299 75504.195883 0.000000 0.000000 0.000000 0.000000 0.000000 38663.515064 24767.525514 0.000000 0.000000 0.000000 0.000000 0.000000 44607.225204 23844.584770 0.000000 0.000000 0.000000 0.000000 0.000000 14343.093546 0.000000 0.000000 0.000000 0.000000 0.000000 0.000000 5252.042859 0.000000 0.000000 0.000000 0.000000 0.000000 0.000000 11348.817343 0.000000 0.000000 0.000000 0.000000 0.000000 0.000000 0.000000 0.000000 0.000000 0.000000 0.000000 0.000000 0.000000 0.000000 0.000000 0.000000 0.000000 0.000000 0.000000 0.000000 15038.395536 3842.177443 0.000000 0.000000 0.000000 0.000000 0.000000 28960.840731 161741.973310 0.000000 0.000000 0.000000 0.000000 0.000000 48856.116773 316233.867998 0.000000 0.000000 0.000000 0.000000 0.000000 62463.469294 231364.852449 0.000000 0.000000 0.000000 0.000000 0.000000 27630.570670 183256.072808 0.000000 0.000000 0.000000 0.000000 0.000000 46381.887680 244876.974646 0.000000 0.000000 0.000000 0.000000 0.000000 81006.274082 363519.303121 0.000000 0.000000 0.000000 0.000000 0.000000 107066.296680 439263.626261 0.000000 0.000000 0.000000 0.000000 0.000000 59576.163857 197485.300152 0.000000 0.000000 0.000000 0.000000 0.000000 59344.825916 368488.467819 0.000000 0.000000 0.000000 0.000000 0.000000 19266.498645 109159.875956 65142.272673 103716.183860 76481.932592 15656.161252 29865.154359 32877.586414 0.000000 48974.864208 6904.951769 0.000000 0.000000 30591.302921 25615.566115 5672.798499 25927.658102 0.000000 0.000000 0.000000 16476.301635 0.000000 2431.309992 0.000000 0.000000 0.000000 0.000000 0.000000 0.000000 0.000000 0.000000 0.000000 0.000000 0.000000 0.000000 0.000000 0.000000 0.000000 0.000000 0.000000 0.000000 0.000000 0.000000 0.000000 0.000000 0.000000 0.000000 0.000000 0.000000 0.000000 0.000000 0.000000 0.000000 0.000000 0.000000 0.000000 0.000000 0.000000 0.000000 0.000000 0.000000 0.000000 0.000000 0.000000 0.000000 0.000000 0.000000 0.000000 0.000000 0.000000 0.000000 0.000000 0.000000 0.000000 0.000000 0.000000 0.000000 0.000000 0.000000 0.000000 0.000000 0.000000 0.000000 0.000000 0.000000 0.000000 0.000000 0.000000 0.000000 0.000000 0.000000 0.000000 0.000000 0.000000 0.000000 0.000000 0.000000 0.000000 0.000000 0.000000 0.000000 0.000000 0.000000 0.000000 0.000000 0.000000 0.000000 0.000000 0.000000 0.000000 0.000000 0.000000 0.000000 0.000000 0.000000 0.000000 0.000000 0.000000 0.000000 0.000000 0.000000 0.000000 0.000000 0.000000 0.000000 0.000000 0.000000 0.000000 0.000000 0.000000 0.000000 0.000000 0.000000 0.000000 0.000000 0.000000 0.000000 0.000000 0.000000 0.000000 0.000000 0.000000 0.000000 0.000000 0.000000 0.000000 0.000000 0.000000 0.000000 0.000000 0.000000 0.000000 0.000000 0.000000 0.000000 0.000000 0.000000 0.000000 0.000000 0.000000 0.000000 0.000000 0.000000 0.000000 0.000000 0.000000 0.000000 0.000000 0.000000
</DataArray>
<DataArray type="Float64" Name="Velocity" NumberOfComponents="3" format="ascii">