<VTKFile type="PolyData">
<PolyData>
<Piece NumberOfPoints="1840" NumberOfVerts="1840" NumberOfLines="0" NumberOfStrips="0" NumberOfPolys="0">
<PointData>
<DataArray type="Float64" Name="Pressure" format="ascii">
 0.000000 0.000000 0.000000 0.000000 0.000000 0.000000 0.000000 0.000000 0.000000 0.000000 0.000000 0.000000 0.000000 0.000000 0.000000 0.000000 0.000000 0.000000 0.000000 0.000000 0.000000 0.000000 0.000000 0.000000 0.000000 0.000000 0.000000 0.000000 0.000000 0.000000 0.000000 0.000000 0.000000 0.000000 0.000000 0.000000 0.000000 0.000000 0.000000 0.000000 0.000000 0.000000 0.000000 0.000000 0.000000 0.000000 0.000000 0.000000 0.000000 0.000000 0.000000 0.000000 0.000000 0.000000 0.000000 0.000000 0.000000 0.000000 0.000000 0.000000 0.000000 0.000000 0.000000 0.000000 0.000000 0.000000 0.000000 0.000000 0.000000 0.000000 0.000000 0.000000 0.000000 0.000000 0.000000 0.000000 0.000000 0.000000 0.000000 0.000000 0.000000 0.000000 0.000000 0.000000 0.000000 0.000000 0.000000 0.000000 0.000000 0.000000 0.000000 0.000000 0.000000 0.000000 0.000000 0.000000 0.000000 0.000000 0.000000 0.000000 0.000000 0.000000 0.000000 0.000000 0.000000 0.000000 0.000000 0.000000 0.000000 0.000000 0.000000 0.000000 0.000000 0.000000 0.000000 0.000000 0.000000 28.983242 0.000000 1913.841660 19302.353397 20204.651679 7626.844309 0.000000 0.000000 0.000000 0.000000 0.000000 0.000000 0.000000 0.000000 0.000000 0.000000 0.000000 0.000000 0.000000 0.000000 0.000000 0.000000 0.000000 0.000000 0.000000 0.000000 0.000000 0.000000 0.000000 0.000000 0.000000 0.000000 0.000000 0.000000 0.000000 0.000000 0.000000 0.000000 0.000000 0.000000 0.000000 0.000000 0.000000 0.000000 0.000000 0.000000 0.000000 0.000000 0.000000 0.000000 0.000000 0.000000 0.000000 0.000000 0.000000 0.000000 1305.539260 8460.886025 5025.887877 0.000000 26359.946117 32478.902569 0.000000 0.000000 0.000000 0.000000 0.000000 0.000000 0.000000 0.000000 0.000000 0.000000 0.000000 0.000000 0.000000 0.000000 0.000000 0.000000 0.000000 0.000000 0.000000 0.000000 0.000000 0.000000 0.000000 0.000000 0.000000 0.000000 0.000000 0.000000 0.000000 0.000000 0.000000 0.000000 0.000000 0.000000 0.000000 0.000000 0.000000 0.000000 0.000000 0.000000 0.000000 0.000000 0.000000 0.000000 0.000000 0.000000 0.000000 0.000000 0.000000 0.000000 0.000000 4551.143121 32577.464294 51129.099495 73513.555431 0.000000 75614.187038 0.000000 2006.481953 0.000000 44142.023021 39673.584528 0.000000 0.000000 0.000000 0.000000 19312.788237 0.000000 31336.378776 32435.064733 0.000000 28363.209941 0.000000 0.000000 120921.995040 0.000000 0.000000 71869.517105 15991.328967 0.000000 0.000000 38232.410491 21436.704085 64250.481367 21204.936098 25157.371320 0.000000 0.000000 4066.948396 0.000000 122351.798752 42669.847137 0.000000 0.000000 0.000000 0.000000 0.000000 3898.321443 30594.578619 64014.908301 64194.880213 95766.290506 63105.454607 0.000000 0.000000 43887.808458 0.000000 62050.955099 59830.956094 0.000000 46831.149193 30885.787406 0.000000 0.000000 125975.233645 19090.234502 0.000000 34744.222195 86786.172108 44058.697998 35221.705392 23644.457457 70976.092930 0.000000 0.000000 52430.031205 26624.911209 11317.555737 0.000000 87126.136370 0.000000 0.000000 21152.248196 22214.960007 0.000000 30065.205654 57831.346033 0.000000 0.000000 0.000000 0.000000 0.000000 0.000000 6333.261471 55127.931307 25887.410162 793.399261 0.000000 75574.663548 14502.273163 65400.520294 37023.257732 60542.344282 3921.771297 24862.624273 2667.991465 4546.419692 49572.956537 49675.727878 31796.396655 35331.362877 52478.716700 21962.179780 47522.018320 54791.139732 19532.229683 73874.823875 0.000000 0.000000 88008.190437 0.000000 49815.712532 36822.712497 0.000000 42025.453714 76326.015520 0.000000 0.000000 11578.106446 27738.537668 48179.323926 26970.452550 0.000000 102393.151735 0.000000 0.000000 0.000000 0.000000 0.000000 3267.753655 39660.000547 50996.806899 91600.653656 166637.344197 0.000000 13042.694413 61163.263176 22435.500068 0.000000 51400.135954 100275.383919 42129.477818 3930.036212 70540.458801 34919.920102 59955.394922 58625.070169 23645.939101 0.000000 0.000000 0.000000 64937.370970 0.000000 161888.013734 54473.869571 104216.502404 0.000000 123876.946642 0.000000 0.000000 29324.491402 36484.274048 60965.284161 133893.062854 56294.340996 1147.096423 0.000000 32787.775120 5233.251138 65683.068498 0.000000 0.000000 0.000000 0.000000 0.000000 5301.979654 50102.666063 48269.519347 72944.402071 13674.685041 74609.549767 14750.330189 7792.209775 0.000000 0.000000 53465.120942 80779.789666 52952.635765 62450.401672 16449.359788 66122.431936 35128.750502 28760.631771 35067.214833 0.000000 0.000000 93052.621825 27767.024909 69491.492440 0.000000 0.000000 43525.235518 104253.757522 68336.011678 90894.454438 13467.068753 41159.679780 16773.247598 30502.538945 86534.888229 19982.789497 11797.501199 103564.101218 13848.501949 7592.252895 76873.391735 0.000000 0.000000 0.000000 0.000000 0.000000 10054.327629 72816.239040 91871.309916 0.000000 59678.703917 0.000000 0.000000 0.000000 85329.254346 0.000000 3425.543281 0.000000 87235.946076 24379.554559 20211.646680 21406.407259 21913.732097 13797.240786 65860.451334 23351.571633 10632.033963 60983.741137 0.000000 79143.773125 51741.297084 8810.027927 22621.098004 0.000000 0.000000 47212.232927 12397.553549 0.000000 0.000000 53126.806109 0.000000 122271.762409 44728.229824 32406.256085 0.000000 97051.051721 14295.754945 0.000000 0.000000 0.000000 0.000000 0.000000 3521.198773 38404.868240 37380.948980 5846.604122 35549.359355 22247.238897 0.000000 51765.516722 63388.511899 0.000000 19806.031946 36830.401822 28803.962352 144798.348617 0.000000 74563.651577 0.000000 88853.646675 26116.876677 62385.253112 52967.974964 0.000000 16842.863901 39565.244098 0.000000 31611.537186 25776.515688 0.000000 5808.875833 31645.002930 28013.079571 65038.190151 0.000000 686.093334 24972.804854 17057.694780 33725.251423 3755.936577 15493.384928 0.000000 0.000000 0.000000 0.000000 0.000000 0.000000 0.000000 1254.327647 15501.499156 35779.872620 106048.168272 110352.304466 115777.205826 33578.607576 0.000000 0.000000 67260.643853 0.000000 73944.350947 0.000000 0.000000 0.000000 0.000000 7334.238485 64423.191217 32886.571667 275.510094 54752.357375 0.000000 28856.326744 28626.610002 24446.729535 0.000000 0.000000 0.000000 0.000000 25494.313490 7589.544052 39249.644355 47642.383016 36893.587302 25125.869436 0.000000 18950.878850 18218.591472 53295.867665 0.000000 25645.968827 0.000000 0.000000 0.000000 0.000000 0.000000 7778.543069 21890.276036 0.000000 0.000000 79031.956283 0.000000 401315.660044 71818.251016 20117.299816 57841.051059 6079.442636 0.000000 38566.760229 146233.199178 0.000000 0.000000 80872.698889 65099.532312 0.000000 57961.406578 36677.165746 23039.936952 2791.706506 42483.906840 29227.666075 0.000000 82911.262951 19740.291682 71033.153636 0.000000 28082.417244 44873.546677 0.000000 0.000000 14053.372184 12616.968113 0.000000 15176.774339 1070.341840 6651.358971 65807.964943 0.000000 0.000000 0.000000 0.000000 0.000000 23934.489040 79739.708727 0.000000 0.000000 0.000000 67784.876993 0.000000 185755.876824 147298.937161 88412.998592 129019.118108 6116.351925 0.000000 0.000000 0.000000 41055.416452 3017.063862 116361.793132 124010.828966 47938.268771 73209.871130 0.000000 0.000000 39373.995471 9020.218391 0.000000 30927.395369 0.000000 0.000000 53060.554417 12728.979981 0.000000 17983.532713 0.000000 7109.972926 0.000000 108051.358897 33731.017722 34838.483948 0.000000 33464.343852 0.000000 0.000000 0.000000 0.000000 0.000000 27504.556890 121090.598426 0.000000 0.000000 0.000000 0.000000 0.000000 0.000000 0.000000 0.000000 144597.712432 0.000000 0.000000 0.000000 359653.179508 54310.899950 415212.306782 18280.106078 59821.246439 96946.529203 0.000000 56650.339625 19192.784097 0.000000 144807.922325 88521.733761 0.000000 7402.185489 0.000000 0.000000 60660.179217 31013.703816 0.000000 69796.782878 43569.161907 0.000000 43345.635148 0.000000 0.000000 0.000000 0.000000 0.000000 0.000000 0.000000 0.000000 0.000000 18841.220961 61382.243264 0.000000 0.000000 0.000000 0.000000 0.000000 0.000000 0.000000 0.000000 0.000000 0.000000 2171.127442 385544.278673 0.000000 0.000000 0.000000 0.000000 0.000000 0.000000 75760.013860 1250.730555 196494.964087 83386.220979 0.000000 104188.508311 0.000000 119554.841554 0.000000 0.000000 102135.628071 35447.915073 0.000000 0.000000 32440.784146 0.000000 0.000000 0.000000 0.000000 4168.325044 0.000000 0.000000 0.000000 0.000000 0.000000 0.000000 32709.115501 88658.707076 0.000000 0.000000 0.000000 0.000000 0.000000 0.000000 4066.121478 0.000000 50886.205703 0.000000 0.000000 0.000000 0.000000 0.000000 0.000000 0.000000 28841.398811 0.000000 0.000000 0.000000 512487.151733 48067.104384 0.000000 8663.461665 0.000000 15416.128001 8556.304758 0.000000 22525.004710 54301.960269 149516.730443 0.000000 127195.279709 21682.552979 0.000000 0.000000 7882.245501 14378.864715 0.000000 0.000000 0.000000 0.000000 0.000000 0.000000 29141.346586 96126.423131 139129.823808 0.000000 42570.124793 9560.364117 0.000000 0.000000 0.000000 0.000000 0.000000 0.000000 0.000000 0.000000 0.000000 0.000000 0.000000 0.000000 0.000000 0.000000 0.000000 255272.707481 0.000000 0.000000 86046.596046 601.777596 0.000000 31583.842403 0.000000 0.000000 0.000000 0.000000 0.000000 0.000000 118343.057394 0.000000 0.000000 47750.047241 0.000000 0.000000 0.000000 0.000000 0.000000 0.000000 0.000000 0.000000 23671.262977 94898.187264 0.000000 0.000000 994.131413 0.000000 0.000000 0.000000 0.000000 0.000000 0.000000 0.000000 0.000000 0.000000 0.000000 0.000000 0.000000 0.000000 0.000000 0.000000 0.000000 0.000000 0.000000 32923.612359 0.000000 0.000000 6335.864012 244851.452145 0.000000 0.000000 87635.218366 53482.234895 0.000000 49509.461110 78036.273402 95561.626873 0.000000 54419.403637 56844.972413 0.000000 31165.466920 0.000000 0.000000 0.000000 0.000000 0.000000 17260.314300 48911.094386 0.000000 0.000000 0.000000 0.000000 0.000000 0.000000 0.000000 0.000000 0.000000 0.000000 0.000000 0.000000 40498.846211 0.000000 0.000000 0.000000 0.000000 0.000000 0.000000 0.000000 0.000000 0.000000 0.000000 0.000000 0.000000 0.000000 87174.646299 0.000000 0.000000 21357.377794 0.000000 125072.843386 166288.304113 31733.578547 0.000000 0.000000 16174.243013 0.000000 57864.875580 0.000000 0.000000 0.000000 0.000000 0.000000 17417.054582 70240.985369 0.000000 0.000000 0.000000 0.000000 0.000000 0.000000 0.000000 0.000000 0.000000 0.000000 0.000000 0.000000 0.000000 0.000000 0.000000 0.000000 0.000000 0.000000 0.000000 0.000000 0.000000 0.000000 0.000000 0.000000 0.000000 0.000000 0.000000 0.000000 0.000000 0.000000 0.000000 0.000000 0.000000 0.000000 16963.273531 110676.668175 0.000000 56195.139284 66003.124011 0.000000 0.000000 0.000000 0.000000 0.000000 11189.598680 40880.332470 0.000000 0.000000 0.000000 0.000000 48732.283067 48732.283067 0.000000 12031.268284 0.000000 0.000000 0.000000 0.000000 0.000000 0.000000 0.000000 0.000000 0.000000 0.000000 0.000000 0.000000 0.000000 0.000000 0.000000 0.000000 0.000000 0.000000 0.000000 0.000000 0.000000 0.000000 0.000000 0.000000 0.000000 0.000000 0.000000 0.000000 0.000000 262450.510539 0.000000 0.000000 0.000000 0.000000 0.000000 0.000000 29973.799215 80682.922134 130062.963220 31487.335143 0.000000 0.000000 21416.432188 0.000000 0.000000 0.000000 0.000000 0.000000 0.000000 0.000000 0.000000 0.000000 72528.100235 0.000000 0.000000 0.000000 0.000000 0.000000 0.000000 0.000000 0.000000 0.000000 0.000000 0.000000 0.000000 0.000000 0.000000 0.000000 0.000000 0.000000 0.000000 0.000000 40982.015259 0.000000 67925.085124 7374.117164 79831.998533 0.000000 0.000000 0.000000 0.000000 0.000000 62162.803911 164915.824044 0.000000 0.000000 0.000000 0.000000 0.000000 30764.580763 116493.077187 0.000000 0.000000 0.000000 0.000000 0.000000 16471.872274 65996.154249 0.000000 0.000000 0.000000 0.000000 0.000000 41516.977808 151709.215132 0.000000 0.000000 0.000000 0.000000 0.000000 34031.458997 183443.259575 0.000000 0.000000 0.000000 0.000000 0.000000 17073.894871 82878.204228 0.000000 0.000000 0.000000 0.000000 0.000000 31091.354563 149559.929412 0.000000 0.000000 0.000000 0.000000 0.000000 28587.754789 102510.111789 0.000000 0.000000 0.000000 0.000000 0.000000 41614.694583 101394.839630 0.000000 0.000000 0.000000 0.000000 0.000000 25294.932551 89011.558618 0.000000 0.000000 0.000000 0.000000 0.000000 11262.189958 60576.155139 0.000000 0.000000 0.000000 0.000000 0.000000 16473.252341 87693.808073 0.000000 0.000000 0.000000 0.000000 0.000000 20768.407519 114794.834562 0.000000 0.000000 0.000000 0.000000 0.000000 17132.136520 81806.965911 0.000000 0.000000 0.000000 0.000000 0.000000 9818.481310 42178.600112 0.000000 0.000000 0.000000 0.000000 0.000000 12986.296693 53730.832867 0.000000 0.000000 0.000000 0.000000 0.000000 9165.004266 37031.003125 0.000000 0.000000 0.000000 0.000000 0.000000 13592.727256 66553.778236 0.000000 0.000000 0.000000 0.000000 0.000000 38088.852594 74168.463279 0.000000 0.000000 0.000000 0.000000 0.000000 48399.993918 82216.389284 0.000000 0.000000 0.000000 0.000000 0.000000 9466.304881 26509.216007 0.000000 0.000000 0.000000 0.000000 0.000000 11310.758583 26710.608731 0.000000 0.000000 0.000000 0.000000 0.000000 34759.942693 96617.638332 0.000000 0.000000 0.000000 0.000000 0.000000 27685.340153 54434.368069 0.000000 0.000000 0.000000 0.000000 0.000000 38288.440987 86582.958895 0.000000 0.000000 0.000000 0.000000 0.000000 25028.238575 108152.094687 0.000000 0.000000 0.000000 0.000000 0.000000 22175.378114 117988.563968 0.000000 0.000000 0.000000 0.000000 0.000000 44136.786567 121562.491897 0.000000 0.000000 0.000000 0.000000 0.000000 35141.926184 63828.833498 0.000000 0.000000 0.000000 0.000000 0.000000 5160.387109 21912.194317 0.000000 0.000000 0.000000 0.000000 0.000000 16031.644460 70704.477072 0.000000 0.000000 0.000000 0.000000 0.000000 25862.185895 73417.981075 0.000000 0.000000 0.000000 0.000000 0.000000 7208.039121 8919.161361 0.000000 0.000000 0.000000 0.000000 0.000000 9477.974240 46964.283837 0.000000 0.000000 0.000000 0.000000 0.000000 15114.863133 67682.350093 0.000000 0.000000 0.000000 0.000000 0.000000 12678.759948 65584.888045 0.000000 0.000000 0.000000 0.000000 0.000000 42124.060377 141946.115534 0.000000 0.000000 0.000000 0.000000 0.000000 51195.492744 134980.486614 0.000000 0.000000 0.000000 0.000000 0.000000 15014.507033 57271.267521 0.000000 0.000000 0.000000 0.000000 0.000000 4088.042245 12127.484065 0.000000 0.000000 0.000000 0.000000 0.000000 16863.884486 33489.389782 0.000000 0.000000 0.000000 0.000000 0.000000 32847.378530 74564.542255 0.000000 0.000000 0.000000 0.000000 0.000000 46441.701459 74206.062919 0.000000 0.000000 0.000000 0.000000 0.000000 16360.102473 10649.403091 0.000000 0.000000 0.000000 0.000000 0.000000 7200.519116 38354.343321 0.000000 0.000000 0.000000 0.000000 0.000000 11625.521216 47102.423316 0.000000 0.000000 0.000000 0.000000 0.000000 20408.803658 62432.813218 0.000000 0.000000 0.000000 0.000000 0.000000 21027.857242 39880.637166 0.000000 0.000000 0.000000 0.000000 0.000000 47335.978085 82086.349166 0.000000 0.000000 0.000000 0.000000 0.000000 24907.625521 66818.285399 0.000000 0.000000 0.000000 0.000000 0.000000 14747.156334 59323.749518 0.000000 0.000000 0.000000 0.000000 0.000000 13427.384979 67827.739785 0.000000 0.000000 0.000000 0.000000 0.000000 14311.406385 73753.779747 0.000000 0.000000 0.000000 0.000000 0.000000 8964.113488 24579.544800 0.000000 0.000000 0.000000 0.000000 0.000000 20551.388703 52837.404176 0.000000 0.000000 0.000000 0.000000 0.000000 45496.581499 98327.848580 0.000000 0.000000 0.000000 0.000000 0.000000 22377.595839 35614.818447 0.000000 0.000000 0.000000 0.000000 0.000000 15157.026886 62837.533838 0.000000 0.000000 0.000000 0.000000 0.000000 13548.401262 67606.133481 0.000000 0.000000 0.000000 0.000000 0.000000 11497.448618 58454.429007 0.000000 0.000000 0.000000 0.000000 0.000000 5674.993338 56622.089163 0.000000 0.000000 0.000000 0.000000 0.000000 3688.389526 40067.976624 0.000000 0.000000 0.000000 0.000000 0.000000 19243.874614 155576.731021 0.000000 0.000000 0.000000 0.000000 0.000000 41797.501469 185470.572227 0.000000 0.000000 0.000000 0.000000 0.000000 36155.139191 92282.146565 0.000000 0.000000 0.000000 0.000000 0.000000 28342.464656 79043.795898 0.000000 0.000000 0.000000 0.000000 0.000000 44614.154143 115110.352023 0.000000 0.000000 0.000000 0.000000 0.000000 25185.395558 64960.248979 0.000000 0.000000 0.000000 0.000000 0.000000 10796.039362 18569.082011 0.000000 0.000000 0.000000 0.000000 0.000000 27357.181614 45369.905437 0.000000 0.000000 0.000000 0.000000 0.000000 61611.730842 135232.502387 0.000000 0.000000 0.000000 0.000000 0.000000 24308.102125 125289.765219 0.000000 0.000000 0.000000 0.000000 0.000000 60689.380234 373373.526208 0.000000 0.000000 0.000000 0.000000 0.000000 107482.920966 419252.769224 0.000000 0.000000 0.000000 0.000000 0.000000 21387.473036 21043.964101 0.000000 0.000000 0.000000 0.000000 0.000000 22966.039563 38051.221545 0.000000 0.000000 0.000000 0.000000 0.000000 69766.083295 133569.901508 0.000000 0.000000 0.000000 0.000000 0.000000 81094.650117 93574.815587 0.000000 0.000000 0.000000 0.000000 0.000000 30337.178676 32812.853484 0.000000 0.000000 0.000000 0.000000 0.000000 31226.671735 88951.461981 0.000000 0.000000 0.000000 0.000000 0.000000 18962.533085 35100.853845 0.000000 0.000000 0.000000 0.000000 0.000000 886.506549 0.000000 0.000000 0.000000 0.000000 0.000000 2821.679454 0.000000 0.000000 49166.369008 27185.745764 40162.947030 25004.725292 0.000000 0.000000 0.000000 0.000000 0.000000 0.000000 0.000000 0.000000 0.000000 0.000000 0.000000 0.000000 0.000000 0.000000 0.000000 0.000000 0.000000 0.000000 0.000000 0.000000 0.000000 0.000000 0.000000 0.000000 0.000000 0.000000 0.000000 0.000000 0.000000 0.000000 0.000000 0.000000 0.000000 0.000000 0.000000 0.000000 0.000000 0.000000 0.000000 0.000000 0.000000 0.000000 0.000000 0.000000 0.000000 0.000000 0.000000 0.000000 0.000000 0.000000 0.000000 0.000000 0.000000 0.000000 0.000000 0.000000 0.000000 0.000000 0.000000 0.000000 0.000000 0.000000 0.000000 0.000000 0.000000 0.000000 0.000000 0.000000 0.000000 0.000000 0.000000 0.000000 0.000000 0.000000 0.000000 0.000000 0.000000 0.000000 0.000000 0.000000 0.000000 0.000000 0.000000 0.000000 0.000000 0.000000 0.000000 0.000000 0.000000 0.000000 0.000000 0.000000 0.000000 0.000000 0.000000 0.000000 0.000000 0.000000 0.000000 0.000000 0.000000 0.000000 0.000000 0.000000 0.000000 0.000000 0.000000 0.000000 0.000000 0.000000 0.000000 0.000000 0.000000 0.000000 0.000000 0.000000 0.000000 0.000000 0.000000 0.000000 0.000000 0.000000 0.000000 0.000000 0.000000 0.000000 0.000000 0.000000 0.000000 0.000000 0.000000 0.000000 0.000000 0.000000 0.000000 0.000000 0.000000 0.000000 0.000000 0.000000 0.000000 0.000000 0.000000 0.000000 0.000000 0.000000 0.000000 0.000000 0.000000 0.000000 0.000000 0.000000 0.000000 0.000000 0.000000 0.000000
</DataArray>
<DataArray type="Float64" Name="Velocity" NumberOfComponents="3" format="ascii">