<VTKFile type="PolyData">
<PolyData>
<Piece NumberOfPoints="1840" NumberOfVerts="1840" NumberOfLines="0" NumberOfStrips="0" NumberOfPolys="0">
<PointData>
<DataArray type="Float64" Name="Pressure" format="ascii">
 0.000000 0.000000 0.000000 0.000000 0.000000 0.000000 0.000000 0.000000 0.000000 0.000000 0.000000 0.000000 0.000000 0.000000 0.000000 0.000000 0.000000 0.000000 0.000000 0.000000 0.000000 0.000000 0.000000 0.000000 0.000000 0.000000 0.000000 0.000000 0.000000 0.000000 0.000000 0.000000 0.000000 0.000000 0.000000 0.000000 0.000000 0.000000 0.000000 0.000000 0.000000 0.000000 0.000000 0.000000 0.000000 0.000000 0.000000 0.000000 0.000000 0.000000 0.000000 0.000000 0.000000 0.000000 0.000000 0.000000 0.000000 0.000000 0.000000 0.000000 0.000000 0.000000 0.000000 0.000000 0.000000 0.000000 0.000000 0.000000 0.000000 0.000000 0.000000 0.000000 0.000000 0.000000 0.000000 0.000000 0.000000 0.000000 0.000000 0.000000 0.000000 0.000000 0.000000 0.000000 0.000000 0.000000 0.000000 0.000000 0.000000 0.000000 0.000000 0.000000 0.000000 0.000000 0.000000 0.000000 0.000000 0.000000 0.000000 0.000000 0.000000 0.000000 0.000000 0.000000 0.000000 0.000000 0.000000 0.000000 0.000000 0.000000 0.000000 0.000000 0.000000 0.000000 0.000000 0.000000 23798.649835 75628.308534 70689.230102 77691.078096 53471.057270 26226.772242 34614.470436 30704.980670 22412.334838 31192.806090 12338.101286 4588.324195 10074.474696 1211.162326 0.000000 0.000000 0.000000 0.000000 0.000000 0.000000 0.000000 0.000000 0.000000 0.000000 0.000000 0.000000 0.000000 0.000000 0.000000 0.000000 0.000000 0.000000 0.000000 0.000000 0.000000 0.000000 0.000000 0.000000 0.000000 0.000000 0.000000 0.000000 0.000000 0.000000 0.000000 0.000000 0.000000 0.000000 0.000000 0.000000 0.000000 0.000000 0.000000 0.000000 0.000000 0.000000 0.000000 71894.307908 227243.974028 181694.110338 284720.821069 243970.109263 149177.864657 183318.763121 121385.402509 96743.654829 137635.276643 13969.592407 0.000000 58008.529068 0.000000 0.000000 0.000000 0.000000 0.000000 0.000000 0.000000 0.000000 0.000000 0.000000 0.000000 0.000000 0.000000 0.000000 0.000000 0.000000 0.000000 0.000000 0.000000 0.000000 0.000000 0.000000 0.000000 0.000000 0.000000 0.000000 0.000000 0.000000 0.000000 0.000000 0.000000 0.000000 0.000000 0.000000 0.000000 0.000000 0.000000 0.000000 0.000000 0.000000 0.000000 0.000000 0.000000 0.000000 57331.783206 137718.976894 227243.974028 266874.323976 255269.916816 279102.345570 169573.033120 140940.263537 127668.398719 163575.438803 93299.804412 98031.728548 234620.849923 133490.605598 24267.856082 287512.444103 162834.307212 74172.322199 214513.752007 153340.490727 23863.828222 146680.219575 143227.861421 25548.329202 206632.759771 36539.317043 133056.000359 0.000000 82838.876805 107783.422458 22136.890402 137925.111234 12859.309540 0.000000 44389.983380 16944.413448 68676.513262 0.000000 0.000000 88401.702847 103394.143131 0.000000 0.000000 0.000000 0.000000 0.000000 83025.834798 299600.547538 286975.086469 119203.239330 185410.112426 155797.922543 169921.787001 163786.743390 257763.872766 156598.561413 182147.211162 171763.466580 119937.758386 79547.692695 198637.223424 211572.816342 131901.416877 312966.180476 148147.194732 27217.374318 172025.046437 203588.608055 156327.715315 106422.618755 146694.146585 133540.672453 143225.226842 88772.385241 3612.351280 79656.609043 444.078890 99372.279773 30479.030980 50439.729225 43067.774330 0.000000 114108.309202 0.000000 1002.875403 0.000000 76832.160468 0.000000 0.000000 0.000000 0.000000 0.000000 87111.772906 309934.443874 240647.227022 138512.422686 115087.421934 203545.282848 133806.169375 135961.916266 208849.087988 139419.210922 236911.422141 210009.085193 231016.170152 238991.785913 111350.982977 112286.864067 101007.665418 167260.860220 190217.528295 72570.980662 83568.923607 112605.609644 136549.079516 178553.555586 138158.685755 69534.694233 105990.110003 128327.733723 90251.888175 88764.184526 146874.057572 64464.692180 51240.847281 69332.533710 89941.668408 99844.754257 0.000000 51213.117368 87968.182784 64534.472656 0.000000 0.000000 0.000000 0.000000 0.000000 0.000000 65771.772659 260146.013073 101958.418407 151828.426342 195585.060654 190562.852566 121183.386204 174674.743120 99780.863527 213974.478657 96225.544831 121808.781781 135862.710752 139839.452270 112277.896403 136396.180386 125975.385102 125366.658016 76142.193616 57697.392848 154296.087696 168824.141892 119980.539136 103892.638043 157574.778518 114658.553738 159999.997063 148595.204185 157959.949201 87023.445085 141064.660573 46672.328204 89972.878387 45997.468849 60019.104014 58000.927139 36626.799109 35766.142991 0.000000 38489.065901 0.000000 0.000000 0.000000 0.000000 0.000000 0.000000 26218.075086 104993.261007 136793.027091 92337.399466 93948.600061 174673.474241 159017.272025 95111.790487 157331.103847 75823.197737 161159.305822 127680.753528 93998.780497 250299.960986 101414.705242 78720.823057 170803.293716 73016.544609 95733.508179 97774.756227 73018.478409 240233.350354 183964.969367 81569.206435 62731.311748 94218.098755 96629.504963 93306.846542 82547.173007 63722.149423 125959.553463 130717.422308 72946.652878 91282.326876 515.317440 39276.886887 85258.049508 0.000000 11361.174511 23071.578322 61533.515015 0.000000 0.000000 0.000000 0.000000 0.000000 48477.024255 134713.655346 203395.046498 33712.906459 180822.926209 159747.816186 79570.889100 111515.018269 156901.658499 144935.115767 131656.063229 100378.870006 117033.312644 146694.559212 87256.920268 151361.375178 146940.394181 129714.129892 153386.521955 113840.033219 73718.201611 47795.487549 113954.346536 108013.376185 96293.902900 95761.746484 60237.335458 88258.902848 63612.484724 113331.055988 50592.084739 27121.640920 3944.701289 17298.636768 83858.122948 64151.875080 18000.125226 0.000000 24916.673415 76504.252051 31461.843887 0.000000 0.000000 0.000000 0.000000 0.000000 66958.573925 286318.405203 152239.438541 58626.530084 165941.817231 76305.323803 174525.758151 134573.027797 119564.630106 97980.158469 101964.082627 106718.470054 137738.453591 204064.730437 126519.267694 19730.343139 163265.974996 174697.384523 188737.525654 98099.460232 114489.513773 112960.492816 91591.446810 56716.678334 27804.277684 135401.627434 86147.702402 139764.056590 74997.254953 45839.392229 50978.160305 108849.524278 30410.592991 12123.018344 62971.813023 17346.804262 72508.683821 0.000000 0.000000 51162.186296 0.000000 0.000000 0.000000 0.000000 0.000000 0.000000 61558.466440 250425.023413 180465.668417 110299.190583 182738.054372 161364.746877 59198.715750 21889.324936 141472.733210 94784.463450 115124.024896 47003.070367 57495.660742 125069.837215 72991.627986 70900.497986 67194.277079 147191.392737 133669.262526 78188.511320 80155.917090 103447.038034 17008.262663 149988.153478 104694.620549 133050.986712 64406.039992 78781.896763 74643.077538 88067.874969 47777.271260 38037.674812 39480.356810 0.000000 33699.583106 24188.751686 12366.766583 26865.563528 0.000000 1830.252696 0.000000 0.000000 0.000000 0.000000 0.000000 0.000000 61292.300519 174870.728932 48849.279746 97058.273340 6211.955717 59185.841744 97116.851858 70009.726162 37525.127468 23867.961631 58209.977595 39752.657376 28484.304497 33797.007645 79946.645818 12466.212923 48128.925604 57402.236475 94445.131631 120545.570425 76759.965079 73095.746239 57472.289331 51884.366754 44035.205429 47253.602213 84201.010790 74536.516149 104715.234112 82847.824617 140860.341470 12596.239036 21457.847589 0.000000 27847.728868 121898.484151 7918.009532 0.000000 33440.125243 7254.055459 0.000000 0.000000 0.000000 0.000000 0.000000 0.000000 39601.762098 152024.860608 139502.535430 13643.014525 116048.231962 23828.399746 12950.962194 148668.270259 13413.785495 27761.205439 28905.761651 93168.821735 76245.255188 50390.489335 82862.106756 78391.390172 73977.667801 41100.428363 27453.336215 34088.579602 53718.418948 28710.681106 83815.457291 72118.965754 46186.932998 19237.246361 65999.486563 70981.860504 72771.913321 12379.182847 25979.185763 2505.670918 66789.909467 0.000000 83792.208354 75182.649057 111903.598345 34759.220040 0.000000 0.000000 0.000000 0.000000 0.000000 0.000000 0.000000 0.000000 69011.857972 195514.439867 87366.190364 51567.404763 69778.618247 21135.726189 0.000000 68156.000051 68850.841779 60813.808839 40978.504268 31893.170476 30251.095500 48252.846998 21106.439331 24505.791031 6701.612564 119994.022644 31055.556847 29116.398764 40374.225268 37805.517594 21708.245950 19451.092807 44624.805616 51882.714489 68307.615790 33341.307895 63142.394782 24411.023903 33940.206037 35534.496774 33469.734072 82287.741969 99683.765389 66613.312995 0.000000 42027.883734 0.000000 10681.828180 17772.656653 0.000000 0.000000 0.000000 0.000000 0.000000 55096.002476 187955.461638 61978.923592 82420.412858 38962.837512 46067.563791 39937.562361 30960.274939 0.000000 71831.626559 32031.400470 19731.398545 40126.013555 9107.324224 28326.897682 55484.877387 21321.390379 89375.145954 48345.479947 42958.882698 70940.980990 7246.547039 61424.532953 58947.446743 27023.761906 9095.065013 45509.850108 92638.609818 72909.085257 32974.855006 33416.123954 491.664913 21486.337134 20818.947051 7694.877445 0.000000 75531.600162 42394.067144 0.000000 8856.664071 50692.294502 0.000000 0.000000 0.000000 0.000000 0.000000 62301.500513 243312.693142 74959.637179 57595.945328 98644.489414 20396.062708 46188.994997 25171.160710 43343.002541 38740.250471 36844.677535 42557.591248 85950.128166 51552.730812 1989.317872 0.000000 78618.591947 22326.852786 40881.991746 12427.419802 4648.473922 27992.642008 0.000000 24310.995152 14252.716218 53396.507614 0.000000 21739.535722 48562.707612 51854.332541 79759.005490 28802.176559 13836.267156 434.223905 8813.575276 0.000000 9124.326913 41792.426638 0.000000 0.000000 0.000000 0.000000 0.000000 0.000000 0.000000 0.000000 33835.084690 103037.692914 48963.332558 11654.609806 90046.423098 63437.825917 140094.771463 38346.639023 47812.963329 45904.292744 60990.942331 16931.945045 18187.345947 37135.692290 23251.563794 51776.438080 0.000000 33347.484728 69363.847574 27670.067127 23293.903802 43527.180848 0.000000 30772.311297 11513.549330 58403.491710 12626.528038 24967.814548 9213.074801 0.000000 27829.130485 32029.063213 84431.871543 0.000000 9291.426327 0.000000 47733.662492 0.000000 0.000000 0.000000 49631.695330 0.000000 0.000000 0.000000 0.000000 0.000000 63025.338892 151702.697957 73955.747612 57411.168315 138282.214912 92103.434966 99961.691718 55347.302644 24695.071274 19960.392363 73221.260443 33118.699685 61243.069344 36290.746230 29421.834626 46648.982868 15260.535955 30318.640630 44783.421097 14810.302002 36019.268727 0.000000 76796.800919 0.000000 74342.298311 35150.978386 70781.048857 11300.330570 23216.268380 0.000000 18080.288690 84239.004649 17178.078202 0.000000 0.000000 0.000000 0.000000 19514.369703 0.000000 0.000000 0.000000 0.000000 0.000000 0.000000 0.000000 0.000000 53994.198365 99577.056951 92825.369020 51599.984313 17523.596194 101952.894758 35813.767331 19478.379193 38881.644774 47922.522824 53075.692183 34686.719902 1187.101904 17827.666403 42158.096832 7906.873359 27774.312970 22473.044755 44583.467967 14373.596087 2536.612773 19244.963162 0.000000 7239.308561 27719.923342 0.000000 0.000000 63355.610709 0.000000 0.000000 0.000000 33146.363298 0.000000 80110.720681 0.000000 8118.371604 0.000000 0.000000 0.000000 0.000000 0.000000 0.000000 0.000000 0.000000 0.000000 0.000000 65923.569756 123061.408866 55430.883062 2622.878087 0.000000 61054.920873 0.000000 0.000000 25837.549864 7456.834910 15141.852793 66560.746109 33178.126007 28082.665054 29458.667402 30473.246743 41176.450068 51421.006630 28357.419826 48121.832428 37771.943148 24595.349708 0.000000 54208.457632 13053.099046 26379.228973 0.000000 0.000000 0.000000 0.000000 0.000000 0.000000 3104.963750 0.000000 0.000000 0.000000 38104.345878 0.000000 36463.913599 701.211881 0.000000 0.000000 0.000000 0.000000 0.000000 0.000000 46787.363945 138826.963926 32019.490627 8850.253941 15451.949453 1036.979034 35480.028175 39082.464974 0.000000 38797.236446 0.000000 39843.884770 0.000000 0.000000 28399.945351 0.000000 26566.125675 0.000000 5028.098174 0.000000 10322.952273 0.000000 24355.088816 36134.476211 6206.966103 0.000000 0.000000 6449.277116 0.000000 0.000000 3352.162197 0.000000 0.000000 32470.119842 15166.182334 0.000000 2440.143973 0.000000 0.000000 20622.635782 0.000000 0.000000 0.000000 0.000000 0.000000 0.000000 60408.559022 186910.771805 0.000000 0.000000 11971.930895 0.000000 0.000000 0.000000 0.000000 0.000000 32921.138147 0.000000 8626.053038 0.000000 0.000000 0.000000 20330.696695 0.000000 0.000000 0.000000 18454.772155 48185.639913 13269.193549 0.000000 16062.547148 44739.075011 0.000000 14596.230066 0.000000 0.000000 0.000000 0.000000 0.000000 0.000000 0.000000 47030.978220 0.000000 0.000000 43671.973643 17767.308916 49176.558773 0.000000 0.000000 0.000000 0.000000 0.000000 66933.212078 172601.742831 0.000000 0.000000 0.000000 0.000000 0.000000 69968.119561 157822.059129 0.000000 0.000000 0.000000 0.000000 0.000000 34040.570342 110604.608199 0.000000 0.000000 0.000000 0.000000 0.000000 34480.151382 130305.463094 0.000000 0.000000 0.000000 0.000000 0.000000 71534.190647 205091.642127 0.000000 0.000000 0.000000 0.000000 0.000000 67621.482953 204663.651481 0.000000 0.000000 0.000000 0.000000 0.000000 59466.478287 135954.445636 0.000000 0.000000 0.000000 0.000000 0.000000 32027.830258 60500.320233 0.000000 0.000000 0.000000 0.000000 0.000000 64261.762950 149809.755286 0.000000 0.000000 0.000000 0.000000 0.000000 47720.487631 133450.996521 0.000000 0.000000 0.000000 0.000000 0.000000 67237.008027 165252.799365 0.000000 0.000000 0.000000 0.000000 0.000000 40981.565004 136835.441025 0.000000 0.000000 0.000000 0.000000 0.000000 17859.041326 99774.883709 0.000000 0.000000 0.000000 0.000000 0.000000 51839.313152 150109.531263 0.000000 0.000000 0.000000 0.000000 0.000000 55223.935058 155978.995609 0.000000 0.000000 0.000000 0.000000 0.000000 34582.572316 113459.131866 0.000000 0.000000 0.000000 0.000000 0.000000 65734.231741 160823.580494 0.000000 0.000000 0.000000 0.000000 0.000000 26923.691048 52923.740129 0.000000 0.000000 0.000000 0.000000 0.000000 37779.068602 94968.522987 0.000000 0.000000 0.000000 0.000000 0.000000 66884.252905 179065.764262 0.000000 0.000000 0.000000 0.000000 0.000000 21787.226222 69374.139067 0.000000 0.000000 0.000000 0.000000 0.000000 22088.171388 47833.243271 0.000000 0.000000 0.000000 0.000000 0.000000 63195.317752 96106.727974 0.000000 0.000000 0.000000 0.000000 0.000000 45405.351825 106176.403551 0.000000 0.000000 0.000000 0.000000 0.000000 63804.695643 154584.616892 0.000000 0.000000 0.000000 0.000000 0.000000 42850.812716 76567.183438 0.000000 0.000000 0.000000 0.000000 0.000000 39743.252176 68395.761426 0.000000 0.000000 0.000000 0.000000 0.000000 31442.756122 92816.846763 0.000000 0.000000 0.000000 0.000000 0.000000 41466.164483 140433.138922 0.000000 0.000000 0.000000 0.000000 0.000000 30286.626971 81230.315110 0.000000 0.000000 0.000000 0.000000 0.000000 25055.927443 43944.450825 0.000000 0.000000 0.000000 0.000000 0.000000 56591.170513 108406.436694 0.000000 0.000000 0.000000 0.000000 0.000000 63546.121097 130693.637697 0.000000 0.000000 0.000000 0.000000 0.000000 46434.455588 101003.198597 0.000000 0.000000 0.000000 0.000000 0.000000 11607.293081 30306.595321 0.000000 0.000000 0.000000 0.000000 0.000000 14010.988320 70610.430991 0.000000 0.000000 0.000000 0.000000 0.000000 11380.695314 58294.906461 0.000000 0.000000 0.000000 0.000000 0.000000 26787.346141 89228.853652 0.000000 0.000000 0.000000 0.000000 0.000000 28307.867006 73385.489903 0.000000 0.000000 0.000000 0.000000 0.000000 18080.505460 53529.259620 0.000000 0.000000 0.000000 0.000000 0.000000 11635.408720 42533.844422 0.000000 0.000000 0.000000 0.000000 0.000000 4918.432828 52351.322804 0.000000 0.000000 0.000000 0.000000 0.000000 11958.803127 72482.210354 0.000000 0.000000 0.000000 0.000000 0.000000 12581.853247 47548.923524 0.000000 0.000000 0.000000 0.000000 0.000000 22365.922586 57900.459766 0.000000 0.000000 0.000000 0.000000 0.000000 51624.561875 95323.174029 0.000000 0.000000 0.000000 0.000000 0.000000 26193.967317 53717.251508 0.000000 0.000000 0.000000 0.000000 0.000000 38052.647548 83318.907533 0.000000 0.000000 0.000000 0.000000 0.000000 36851.250235 95834.308811 0.000000 0.000000 0.000000 0.000000 0.000000 43050.979377 81381.531493 0.000000 0.000000 0.000000 0.000000 0.000000 25474.287745 48147.379158 0.000000 0.000000 0.000000 0.000000 0.000000 22075.596722 67563.068282 0.000000 0.000000 0.000000 0.000000 0.000000 17539.295894 55322.860547 0.000000 0.000000 0.000000 0.000000 0.000000 38719.545075 77508.162157 0.000000 0.000000 0.000000 0.000000 0.000000 38220.863904 106641.695928 0.000000 0.000000 0.000000 0.000000 0.000000 27361.635751 78625.739761 0.000000 0.000000 0.000000 0.000000 0.000000 31824.055983 80874.648592 0.000000 0.000000 0.000000 0.000000 0.000000 25691.584632 66325.697626 0.000000 0.000000 0.000000 0.000000 0.000000 60095.511790 141392.252528 0.000000 0.000000 0.000000 0.000000 0.000000 31647.787598 70194.239968 0.000000 0.000000 0.000000 0.000000 0.000000 33201.657902 92635.383447 0.000000 0.000000 0.000000 0.000000 0.000000 28458.865026 86240.751530 0.000000 0.000000 0.000000 0.000000 0.000000 24488.803913 68187.548793 0.000000 0.000000 0.000000 0.000000 0.000000 36693.354862 89406.830543 0.000000 0.000000 0.000000 0.000000 0.000000 63285.324130 135332.418132 0.000000 0.000000 0.000000 0.000000 0.000000 19151.816773 58337.087157 0.000000 0.000000 0.000000 0.000000 0.000000 10594.869088 53665.175509 0.000000 0.000000 0.000000 0.000000 0.000000 40778.252772 102764.773041 0.000000 0.000000 0.000000 0.000000 0.000000 28171.797116 75301.477778 0.000000 0.000000 0.000000 0.000000 0.000000 37185.313170 75639.618038 0.000000 0.000000 0.000000 0.000000 0.000000 39274.906534 38225.649954 0.000000 0.000000 0.000000 0.000000 0.000000 35648.206480 25630.297342 0.000000 0.000000 0.000000 0.000000 0.000000 40439.840489 49954.523967 0.000000 0.000000 0.000000 0.000000 0.000000 7207.506564 20916.141060 0.000000 0.000000 0.000000 0.000000 0.000000 10181.799255 54150.048947 0.000000 0.000000 0.000000 0.000000 0.000000 8428.773920 17446.121721 0.000000 0.000000 0.000000 0.000000 0.000000 816.570720 0.000000 0.000000 0.000000 0.000000 0.000000 0.000000 7812.986405 6892.364886 0.000000 0.000000 0.000000 0.000000 0.000000 24177.934358 4129.204106 0.000000 0.000000 0.000000 0.000000 0.000000 43924.712620 13006.769356 0.000000 0.000000 0.000000 0.000000 0.000000 8948.548083 0.000000 0.000000 0.000000 0.000000 0.000000 0.000000 0.000000 0.000000 0.000000 0.000000 0.000000 0.000000 0.000000 0.000000 0.000000 0.000000 0.000000 0.000000 0.000000 0.000000 0.000000 0.000000 0.000000 0.000000 0.000000 0.000000 0.000000 0.000000 0.000000 0.000000 0.000000 0.000000 0.000000 0.000000 0.000000 0.000000 0.000000 0.000000 0.000000 0.000000 0.000000 0.000000 0.000000 0.000000 0.000000 0.000000 0.000000 0.000000 0.000000 0.000000 0.000000 0.000000 0.000000 0.000000 0.000000 0.000000 0.000000 0.000000 0.000000 0.000000 0.000000 0.000000 0.000000 0.000000 0.000000 0.000000 0.000000 0.000000 0.000000 0.000000 0.000000 0.000000 0.000000 0.000000 0.000000 0.000000 0.000000 0.000000 0.000000 0.000000 0.000000 0.000000 0.000000 0.000000 0.000000 0.000000 0.000000 0.000000 0.000000 0.000000 0.000000 0.000000 0.000000 0.000000 0.000000 0.000000 0.000000 0.000000 0.000000 0.000000 0.000000 0.000000 0.000000 0.000000 0.000000 0.000000 0.000000 0.000000 0.000000 0.000000 0.000000 0.000000 0.000000 0.000000 0.000000 0.000000 0.000000 0.000000 0.000000 0.000000 0.000000 0.000000 0.000000 0.000000 0.000000 0.000000 0.000000 0.000000 0.000000 0.000000 0.000000 0.000000 0.000000 0.000000 0.000000 0.000000 0.000000 0.000000 0.000000 0.000000 0.000000 0.000000 0.000000 0.000000 0.000000 0.000000 0.000000 0.000000 0.000000 0.000000 0.000000 0.000000 0.000000 0.000000 0.000000 0.000000 0.000000 0.000000 0.000000 0.000000 0.000000 0.000000 0.000000 0.000000 0.000000 0.000000 0.000000 0.000000 0.000000 0.000000 0.000000 0.000000 0.000000 0.000000 0.000000
</DataArray>
<DataArray type="Float64" Name="Velocity" NumberOfComponents="3" format="ascii">