<VTKFile type="PolyData">
<PolyData>
<Piece NumberOfPoints="1840" NumberOfVerts="1840" NumberOfLines="0" NumberOfStrips="0" NumberOfPolys="0">
<PointData>
<DataArray type="Float64" Name="Pressure" format="ascii">
 0.000000 0.000000 0.000000 0.000000 0.000000 0.000000 0.000000 0.000000 0.000000 0.000000 0.000000 0.000000 0.000000 0.000000 0.000000 0.000000 0.000000 0.000000 0.000000 0.000000 0.000000 0.000000 0.000000 0.000000 0.000000 0.000000 0.000000 0.000000 0.000000 0.000000 0.000000 0.000000 0.000000 0.000000 0.000000 0.000000 0.000000 0.000000 0.000000 0.000000 0.000000 0.000000 0.000000 0.000000 0.000000 0.000000 0.000000 0.000000 0.000000 0.000000 0.000000 0.000000 0.000000 0.000000 0.000000 0.000000 0.000000 0.000000 0.000000 0.000000 0.000000 0.000000 0.000000 0.000000 0.000000 0.000000 0.000000 0.000000 0.000000 0.000000 0.000000 0.000000 0.000000 0.000000 0.000000 0.000000 0.000000 0.000000 0.000000 0.000000 0.000000 0.000000 0.000000 0.000000 0.000000 0.000000 0.000000 0.000000 0.000000 0.000000 0.000000 0.000000 0.000000 0.000000 0.000000 0.000000 0.000000 0.000000 0.000000 0.000000 0.000000 0.000000 0.000000 0.000000 0.000000 0.000000 0.000000 0.000000 0.000000 0.000000 0.000000 0.000000 0.000000 0.000000 0.000000 0.000000 23798.649835 71682.831056 50189.583860 54031.387749 60478.045567 44976.646363 26006.583876 69662.851395 39939.553621 29598.756590 61071.463262 37659.866176 32148.176379 33290.437425 18437.776846 15472.829719 14110.633364 17427.486366 11548.756464 8658.073838 10334.078893 0.000000 0.000000 0.000000 0.000000 0.000000 0.000000 0.000000 0.000000 0.000000 0.000000 0.000000 0.000000 0.000000 0.000000 0.000000 0.000000 0.000000 0.000000 0.000000 0.000000 0.000000 0.000000 0.000000 0.000000 0.000000 0.000000 0.000000 0.000000 0.000000 0.000000 0.000000 0.000000 0.000000 0.000000 0.000000 0.000000 71368.283356 283676.122069 219231.129455 222489.759293 264788.249309 155475.789665 53512.827863 192756.909886 128096.871061 52681.385933 94607.817453 65815.547331 98601.906332 103464.530487 47401.191760 51045.848157 53125.652061 47615.150589 6659.374862 17747.617324 1065.803087 0.000000 0.000000 0.000000 0.000000 0.000000 0.000000 0.000000 0.000000 0.000000 0.000000 0.000000 0.000000 0.000000 0.000000 0.000000 0.000000 0.000000 0.000000 0.000000 0.000000 0.000000 0.000000 0.000000 0.000000 0.000000 0.000000 0.000000 0.000000 0.000000 0.000000 0.000000 0.000000 0.000000 0.000000 0.000000 0.000000 47245.936471 229728.454255 283676.122069 175867.947215 221045.682071 203322.760326 219117.238813 237282.556641 177490.010131 88074.876887 102607.063098 203601.596320 284667.239382 165943.870996 70883.210905 154437.627398 142033.081522 91153.398016 172618.074365 99777.043762 43073.511354 70464.428113 140389.797279 57903.442196 59349.654180 79220.778144 43714.016807 42371.253052 46670.076593 41794.885371 36153.043551 28308.422501 37539.448949 23624.549624 33515.645830 0.000000 9338.094385 0.000000 0.000000 0.000000 0.000000 0.000000 0.000000 0.000000 0.000000 0.000000 68033.948806 277085.498899 287798.405493 137451.500674 212678.685575 237885.394300 168446.009004 234589.108269 184392.361101 173704.723375 254211.488011 298879.961267 82635.194461 122534.532176 237288.963724 191744.289526 132930.181658 137540.526784 179050.650528 86061.794557 147673.482807 114773.707562 124797.919863 90247.083651 91584.793652 82772.392009 59695.110966 47062.853215 44561.936529 23600.535781 46813.862288 16533.164649 26908.690638 32597.580327 24669.639735 2873.850815 30608.982548 9047.267250 28686.063736 0.000000 0.000000 0.000000 0.000000 0.000000 0.000000 0.000000 55192.182445 247940.668359 288988.035394 233157.352927 206282.468045 367968.971970 207945.673350 93295.562848 222910.349516 131414.184786 207015.242170 174591.356404 187397.660486 201224.078969 131241.491101 108181.388815 144394.278357 64578.462254 174946.772856 116639.859369 59218.099184 115831.625717 73435.902261 79615.675801 87049.513745 50542.512939 72741.626881 85983.498660 55994.191181 65815.340707 63750.360351 14617.788474 10428.199768 5932.860679 774.373058 0.000000 6267.416107 0.000000 12507.558784 18478.995823 0.000000 0.000000 0.000000 0.000000 0.000000 0.000000 68170.870142 266521.170782 214986.749815 129024.664743 208692.673407 248562.040601 123183.660134 141427.659649 117600.514973 147757.422737 136669.679436 146598.664192 147733.293569 99436.784793 85760.841061 159166.927585 155394.584247 123160.745054 153615.510042 108780.102525 89434.995665 98161.065211 140552.021343 107313.488766 59413.060277 1757.475574 63648.854836 54070.767642 23919.837314 89921.004726 61139.082509 18850.898240 40769.960544 3090.713210 3398.428987 44914.035079 19897.720130 0.000000 4796.946322 0.000000 30364.946688 0.000000 0.000000 0.000000 0.000000 0.000000 78644.822215 304257.767298 216527.769071 127593.716580 140739.999650 62321.262197 162602.147348 65097.945230 107988.080181 133711.443667 191796.185169 77825.879328 106284.080587 100279.962655 146838.576777 106407.500562 119082.588069 85450.871798 114573.918968 122611.945390 98356.226484 126752.426494 151736.875371 58715.027988 73675.386585 81978.323557 38640.050033 30948.355619 84708.157977 75939.184976 51497.503224 0.000000 39555.864708 24404.304585 9720.561693 40667.790385 32362.824537 0.000000 1015.509705 0.000000 0.000000 0.000000 0.000000 0.000000 0.000000 0.000000 96510.455387 373102.451938 193110.291606 189989.643363 212012.141910 92304.470128 118604.558825 94528.623148 149583.613581 73335.379355 120765.849961 152157.921079 112458.005603 94789.236851 94471.367573 185116.777542 105147.918393 96289.132239 100967.170978 80028.353446 110727.537916 80596.084861 45871.016788 170682.875639 38930.692075 38986.252098 93697.024838 77078.039107 84248.283588 49855.724524 11495.863455 19422.262123 32959.588666 0.000000 28851.388548 403.530407 18315.444579 21320.189957 0.000000 0.000000 0.000000 0.000000 0.000000 0.000000 0.000000 0.000000 98010.231717 258128.974708 218903.934838 104643.939773 111318.878523 136003.728070 85153.910471 67890.790270 112644.341112 109242.125375 186753.858232 172710.723710 133641.719400 117809.388076 79260.161946 112841.102891 139230.058624 230817.093440 88109.012044 92042.400498 143159.603574 112673.515526 37930.565106 62414.145788 112854.108512 93494.189268 80302.210669 31569.053602 27863.499050 28756.548961 43754.879989 31582.715945 40944.407132 4286.545926 38346.310399 0.000000 0.000000 23594.632184 0.000000 1896.148791 22994.770376 0.000000 0.000000 0.000000 0.000000 0.000000 94460.353628 203638.255717 170043.823663 153819.369637 154297.342297 163775.248536 23076.920770 145812.495929 94527.721015 100275.384315 85498.546625 78412.169095 146783.143576 92631.458786 66022.903665 84402.178274 91067.254599 92858.668381 128712.163550 145201.637320 82924.863215 110331.455342 71366.663226 114828.130940 153434.271197 46727.141609 86876.308931 57429.927818 98930.279733 89987.927622 55276.909870 43312.568824 13342.233723 1125.303914 6803.437867 7139.673015 21311.670305 24773.504853 21476.238397 0.000000 8431.698611 0.000000 0.000000 0.000000 0.000000 0.000000 87161.030161 205973.118558 120589.475911 63044.424599 47524.074673 129381.544579 151002.249428 38268.926665 170477.364609 86480.711461 60723.400491 64590.243045 102086.696494 58605.204459 31969.972818 89910.376217 102077.738554 118405.886422 83533.042731 123768.233401 65508.247385 114932.748746 165735.266117 103114.780174 124562.597530 80022.728489 70889.773617 36101.289527 58486.990053 60983.891344 46327.892283 64441.285760 34990.229317 14585.092510 35858.733132 16586.519705 940.524206 0.000000 7353.726682 0.000000 0.000000 0.000000 0.000000 0.000000 0.000000 0.000000 68111.489989 210032.429954 90220.300629 93829.084433 120409.673069 130128.630503 64972.378175 38493.025782 81680.746214 92916.884563 65219.090702 69869.364575 80070.121625 97412.967895 63032.921837 78052.846627 114858.412206 120321.496964 58668.895606 125092.365658 29928.650605 20225.873517 138414.758473 95243.028322 49545.895781 25182.938589 99289.396477 67157.380260 84998.881999 63952.393435 52788.824972 41555.180893 0.000000 7546.781134 5427.875270 24830.922970 15207.194159 11113.527823 11336.906996 0.000000 0.000000 0.000000 0.000000 0.000000 0.000000 0.000000 78963.892264 236205.067585 116228.021322 25158.072770 120781.923874 60044.177590 44120.910759 211159.361081 95109.808307 56549.563766 32338.423544 74056.923032 90580.716281 59660.245047 71280.976936 104690.705855 35903.936562 48279.605545 140861.641422 131544.851614 49141.940575 95655.857277 105387.861445 53495.879179 37740.055962 72500.444510 58822.750841 78064.313430 90203.484199 84525.151895 75074.883270 62121.578906 10444.176170 13134.156472 33404.667146 22411.005382 6817.451452 0.000000 0.000000 0.000000 0.000000 0.000000 0.000000 0.000000 0.000000 0.000000 68352.828489 183892.689119 124223.150507 74979.114771 69559.103253 56920.212130 52287.742192 48625.868392 0.000000 63552.478463 17714.702598 4410.131344 67713.515747 68211.429751 33253.613167 95800.420660 117428.499627 58671.868567 36306.723304 80547.798218 45050.540422 73532.483412 61628.610848 97476.965676 89541.272806 74227.672211 64914.003074 31452.812694 74972.430520 95818.590961 56237.240931 44907.867469 13825.799283 23750.441744 34225.980865 14078.171607 9290.736790 7575.774752 0.000000 0.000000 0.000000 0.000000 0.000000 0.000000 0.000000 0.000000 67507.154847 191609.124200 83448.407343 37654.317615 100539.120723 71156.218264 88263.311920 28372.088490 37450.798924 62934.143289 26314.387210 35879.009307 48481.380653 49617.873636 56365.316931 23368.765648 3496.739812 22854.515823 31887.541415 74201.548676 62077.133982 23599.901386 4800.406248 48998.337851 85354.721042 120284.015295 83181.218392 53216.428281 57637.021342 53146.795316 49057.020702 43938.428395 51176.709183 60634.843477 51317.796418 40419.870960 11239.948139 0.000000 8852.950508 0.000000 0.000000 0.000000 0.000000 0.000000 0.000000 0.000000 60693.989627 136917.441500 61441.018930 35513.737667 81715.013985 43630.904995 43622.889463 43294.545470 52899.405110 42700.786852 61586.993070 23508.564039 76868.329095 36986.918784 29304.027108 46817.932807 52894.739638 12732.754206 29583.891318 53779.204565 28563.308088 18045.372489 14230.219296 51202.525868 100329.115333 98157.537060 37136.183717 28655.276651 116287.771604 78273.050202 36377.565077 42287.685173 68058.048101 62278.703016 71749.955721 46046.371930 30171.256428 0.000000 12940.987465 0.000000 0.000000 0.000000 0.000000 0.000000 0.000000 0.000000 59437.118024 138600.373519 33778.472401 32694.057084 57655.825107 49228.750010 36967.175772 53433.974518 15687.821485 20122.557029 39141.177399 23857.461197 33740.531823 32362.097901 49058.295696 46642.671187 19349.217859 9070.249781 3862.297473 31812.919058 23028.725449 8491.545258 19047.538309 17692.668589 51912.549158 15897.934730 22925.572392 9110.896446 76276.006744 50908.249145 26919.996535 32858.181934 57907.263759 33885.210902 0.000000 12871.804309 37766.854956 0.000000 42573.372975 2833.024299 0.000000 0.000000 0.000000 0.000000 0.000000 0.000000 72533.040411 250707.741218 55237.949932 18225.588355 28235.882292 41778.781704 31597.603846 23829.867242 23341.710741 39165.735002 28849.500040 29761.888032 21173.339063 32598.941592 35920.296694 33444.368568 16312.609002 17179.289534 46495.230524 40880.998017 15129.430375 23294.009011 12310.784652 11520.719177 30657.362582 0.000000 8836.221483 37229.554427 49309.952703 48641.535736 17680.402179 72511.881268 101908.935783 50537.044328 1955.188852 87355.410029 72143.321132 0.000000 64876.361585 2286.450718 0.000000 0.000000 0.000000 0.000000 0.000000 0.000000 69248.613039 179743.514391 60269.377188 0.000000 0.000000 35516.741406 6189.841880 0.000000 5117.701331 3566.153259 0.000000 42636.785206 10337.754843 0.000000 17435.183636 35916.609010 58047.077434 31999.503874 30667.981473 31469.072736 16242.313199 24423.206277 38406.985195 22477.321715 0.000000 6080.013580 18718.584883 29047.457513 0.000000 0.000000 0.000000 24907.319586 0.000000 0.000000 0.000000 0.000000 0.000000 0.000000 0.000000 0.000000 0.000000 0.000000 0.000000 0.000000 0.000000 0.000000 59065.627893 168063.392868 66074.810905 13659.323135 33524.731986 0.000000 19207.122258 0.000000 10541.691161 20642.632963 22784.346812 20104.909149 7795.009675 0.000000 20499.928790 0.000000 32517.980059 0.000000 19704.207134 0.000000 13356.023411 0.000000 9180.155488 0.000000 32582.535302 17358.074570 0.000000 0.000000 0.000000 17693.660100 0.000000 0.000000 0.000000 0.000000 0.000000 0.000000 0.000000 26674.706654 24912.072548 17205.446125 3964.792232 0.000000 0.000000 0.000000 0.000000 0.000000 79541.284924 196365.771141 37069.233085 0.000000 33857.250428 0.000000 6866.286876 3432.114528 5452.018278 0.000000 0.000000 0.000000 0.000000 0.000000 0.000000 0.000000 0.000000 26660.635412 0.000000 4914.054474 10971.999652 16043.515075 26551.167632 0.000000 0.000000 0.000000 32019.935167 0.000000 0.000000 0.000000 0.000000 0.000000 0.000000 0.000000 0.000000 39983.999673 26123.669710 28979.861722 21057.409445 0.000000 0.000000 0.000000 0.000000 0.000000 0.000000 0.000000 77402.728700 122344.220949 0.000000 0.000000 0.000000 0.000000 0.000000 41629.733040 60911.204853 0.000000 0.000000 0.000000 0.000000 0.000000 46177.841025 75390.133540 0.000000 0.000000 0.000000 0.000000 0.000000 68056.183470 209760.071730 0.000000 0.000000 0.000000 0.000000 0.000000 46557.179391 188946.396573 0.000000 0.000000 0.000000 0.000000 0.000000 64936.753138 149884.269670 0.000000 0.000000 0.000000 0.000000 0.000000 24671.075839 80423.624072 0.000000 0.000000 0.000000 0.000000 0.000000 41477.140557 131296.225082 0.000000 0.000000 0.000000 0.000000 0.000000 64016.569257 140702.991233 0.000000 0.000000 0.000000 0.000000 0.000000 53856.523007 116142.872027 0.000000 0.000000 0.000000 0.000000 0.000000 61567.265741 114766.218775 0.000000 0.000000 0.000000 0.000000 0.000000 29825.732606 93623.408899 0.000000 0.000000 0.000000 0.000000 0.000000 58743.175412 126949.564044 0.000000 0.000000 0.000000 0.000000 0.000000 43953.739382 77667.101055 0.000000 0.000000 0.000000 0.000000 0.000000 54874.012750 93612.770245 0.000000 0.000000 0.000000 0.000000 0.000000 60702.660435 116744.093719 0.000000 0.000000 0.000000 0.000000 0.000000 70744.644743 214886.066173 0.000000 0.000000 0.000000 0.000000 0.000000 25103.107910 60765.326338 0.000000 0.000000 0.000000 0.000000 0.000000 11869.772828 31485.220129 0.000000 0.000000 0.000000 0.000000 0.000000 56608.752779 119361.715991 0.000000 0.000000 0.000000 0.000000 0.000000 43852.491957 73995.032253 0.000000 0.000000 0.000000 0.000000 0.000000 52226.926123 103736.858158 0.000000 0.000000 0.000000 0.000000 0.000000 47326.314662 88295.857550 0.000000 0.000000 0.000000 0.000000 0.000000 42351.673326 77188.175738 0.000000 0.000000 0.000000 0.000000 0.000000 41176.729574 66355.365225 0.000000 0.000000 0.000000 0.000000 0.000000 26871.662874 79720.000707 0.000000 0.000000 0.000000 0.000000 0.000000 48915.829013 123741.622574 0.000000 0.000000 0.000000 0.000000 0.000000 20900.499082 51009.118061 0.000000 0.000000 0.000000 0.000000 0.000000 23363.488982 103253.655625 0.000000 0.000000 0.000000 0.000000 0.000000 14969.750999 39545.204323 0.000000 0.000000 0.000000 0.000000 0.000000 16423.599233 60183.284474 0.000000 0.000000 0.000000 0.000000 0.000000 13757.657863 58068.831379 0.000000 0.000000 0.000000 0.000000 0.000000 19664.670406 69765.166885 0.000000 0.000000 0.000000 0.000000 0.000000 32289.989536 88454.870597 0.000000 0.000000 0.000000 0.000000 0.000000 16314.781167 35546.482151 0.000000 0.000000 0.000000 0.000000 0.000000 30538.064388 75747.679827 0.000000 0.000000 0.000000 0.000000 0.000000 17269.136117 44401.234212 0.000000 0.000000 0.000000 0.000000 0.000000 10592.323764 64107.555284 0.000000 0.000000 0.000000 0.000000 0.000000 6369.889052 38108.166932 0.000000 0.000000 0.000000 0.000000 0.000000 11353.523529 57182.727134 0.000000 0.000000 0.000000 0.000000 0.000000 17962.004728 69992.635678 0.000000 0.000000 0.000000 0.000000 0.000000 18385.482394 87498.886460 0.000000 0.000000 0.000000 0.000000 0.000000 23826.682562 82267.822498 0.000000 0.000000 0.000000 0.000000 0.000000 16439.643524 52412.888277 0.000000 0.000000 0.000000 0.000000 0.000000 18605.819846 50713.693967 0.000000 0.000000 0.000000 0.000000 0.000000 52006.317673 81130.889430 0.000000 0.000000 0.000000 0.000000 0.000000 17184.498121 19817.024667 0.000000 0.000000 0.000000 0.000000 0.000000 6242.604938 39073.000774 0.000000 0.000000 0.000000 0.000000 0.000000 47010.330738 67698.785518 0.000000 0.000000 0.000000 0.000000 0.000000 44248.666937 0.000000 0.000000 0.000000 0.000000 0.000000 0.000000 2172.800199 0.000000 0.000000 0.000000 0.000000 0.000000 0.000000 0.000000 0.000000 0.000000 0.000000 0.000000 0.000000 0.000000 0.000000 0.000000 0.000000 0.000000 0.000000 0.000000 0.000000 0.000000 0.000000 0.000000 0.000000 0.000000 0.000000 0.000000 0.000000 0.000000 0.000000 0.000000 0.000000 0.000000 0.000000 0.000000 0.000000 0.000000 0.000000 0.000000 0.000000 0.000000 0.000000 0.000000 0.000000 0.000000 0.000000 0.000000 0.000000 0.000000 0.000000 0.000000 0.000000 0.000000 0.000000 0.000000 0.000000 0.000000 0.000000 0.000000 0.000000 0.000000 0.000000 0.000000 0.000000 0.000000 0.000000 0.000000 0.000000 0.000000 0.000000 0.000000 0.000000 0.000000 0.000000 0.000000 0.000000 0.000000 0.000000 0.000000 0.000000 0.000000 0.000000 0.000000 0.000000 0.000000 0.000000 0.000000 0.000000 0.000000 0.000000 0.000000 0.000000 0.000000 0.000000 0.000000 0.000000 0.000000 0.000000 0.000000 0.000000 0.000000 0.000000 0.000000 0.000000 0.000000 0.000000 0.000000 0.000000 0.000000 0.000000 0.000000 0.000000 0.000000 0.000000 0.000000 0.000000 0.000000 0.000000 0.000000 0.000000 0.000000 0.000000 0.000000 0.000000 0.000000 0.000000 0.000000 0.000000 0.000000 0.000000 0.000000 0.000000 0.000000 0.000000 0.000000 0.000000 0.000000 0.000000 0.000000 0.000000 0.000000 0.000000 0.000000 0.000000 0.000000 0.000000 0.000000 0.000000 0.000000 0.000000 0.000000 0.000000 0.000000 0.000000 0.000000 0.000000 0.000000 0.000000 0.000000 0.000000 0.000000 0.000000 0.000000 0.000000 0.000000 0.000000 0.000000 0.000000 0.000000 0.000000 0.000000 0.000000 0.000000 0.000000 0.000000 0.000000 0.000000 0.000000 0.000000 0.000000 0.000000 0.000000 0.000000 0.000000 0.000000 0.000000 0.000000 0.000000 0.000000 0.000000 0.000000 0.000000 0.000000 0.000000 0.000000 0.000000 0.000000 0.000000 0.000000 0.000000 0.000000 0.000000 0.000000 0.000000 0.000000 0.000000 0.000000 0.000000 0.000000 0.000000 0.000000 0.000000 0.000000 0.000000 0.000000 0.000000 0.000000 0.000000 0.000000 0.000000 0.000000 0.000000 0.000000 0.000000 0.000000 0.000000 0.000000 0.000000 0.000000 0.000000 0.000000 0.000000 0.000000 0.000000 0.000000 0.000000 0.000000 0.000000 0.000000 0.000000 0.000000 0.000000 0.000000 0.000000 0.000000 0.000000 0.000000 0.000000 0.000000 0.000000 0.000000 0.000000 0.000000 0.000000 0.000000 0.000000 0.000000 0.000000 0.000000 0.000000 0.000000 0.000000 0.000000 0.000000 0.000000 0.000000 0.000000 0.000000 0.000000 0.000000 0.000000 0.000000 0.000000 0.000000 0.000000 0.000000 0.000000 0.000000 0.000000 0.000000 0.000000 0.000000 0.000000 0.000000 0.000000 0.000000 0.000000 0.000000 0.000000 0.000000 0.000000 0.000000 0.000000 0.000000 0.000000 0.000000 0.000000 0.000000 0.000000 0.000000 0.000000 0.000000 0.000000 0.000000 0.000000 0.000000 0.000000 0.000000 0.000000 0.000000 0.000000 0.000000 0.000000 0.000000 0.000000 0.000000 0.000000 0.000000 0.000000 0.000000 0.000000 0.000000 0.000000 0.000000 0.000000 0.000000 0.000000 0.000000 0.000000 0.000000 0.000000 0.000000 0.000000 0.000000 0.000000 0.000000 0.000000 0.000000 0.000000 0.000000 0.000000 0.000000 0.000000 0.000000 0.000000 0.000000 0.000000 0.000000 0.000000 0.000000 0.000000 0.000000 0.000000 0.000000 0.000000 0.000000 0.000000 0.000000 0.000000 0.000000 0.000000 0.000000 0.000000 0.000000 0.000000 0.000000 0.000000 0.000000 0.000000 0.000000 0.000000 0.000000 0.000000 0.000000 0.000000 0.000000 0.000000 0.000000 0.000000 0.000000 0.000000 0.000000 0.000000 0.000000 0.000000
</DataArray>
<DataArray type="Float64" Name="Velocity" NumberOfComponents="3" format="ascii">