<VTKFile type="PolyData">
<PolyData>
<Piece NumberOfPoints="1840" NumberOfVerts="1840" NumberOfLines="0" NumberOfStrips="0" NumberOfPolys="0">
<PointData>
<DataArray type="Float64" Name="Pressure" format="ascii">
 0.000000 0.000000 0.000000 0.000000 0.000000 0.000000 0.000000 0.000000 0.000000 0.000000 0.000000 0.000000 0.000000 0.000000 0.000000 0.000000 0.000000 0.000000 0.000000 0.000000 0.000000 0.000000 0.000000 0.000000 0.000000 0.000000 0.000000 0.000000 0.000000 0.000000 0.000000 0.000000 0.000000 0.000000 0.000000 0.000000 0.000000 0.000000 0.000000 0.000000 0.000000 0.000000 0.000000 0.000000 0.000000 0.000000 0.000000 0.000000 0.000000 0.000000 0.000000 0.000000 0.000000 0.000000 0.000000 0.000000 0.000000 0.000000 0.000000 0.000000 0.000000 0.000000 0.000000 0.000000 0.000000 0.000000 0.000000 0.000000 0.000000 0.000000 0.000000 0.000000 0.000000 0.000000 0.000000 0.000000 0.000000 0.000000 0.000000 0.000000 0.000000 0.000000 0.000000 0.000000 0.000000 0.000000 0.000000 0.000000 0.000000 0.000000 0.000000 0.000000 0.000000 0.000000 0.000000 0.000000 0.000000 0.000000 0.000000 0.000000 0.000000 0.000000 0.000000 0.000000 0.000000 0.000000 0.000000 0.000000 0.000000 0.000000 0.000000 0.000000 0.000000 0.000000 0.000000 0.000000 0.000000 2693.641037 11467.483800 8674.836085 9031.390853 30900.516689 12059.917208 0.000000 0.000000 0.000000 0.000000 0.000000 0.000000 0.000000 0.000000 0.000000 0.000000 0.000000 0.000000 0.000000 0.000000 0.000000 0.000000 0.000000 0.000000 0.000000 0.000000 0.000000 0.000000 0.000000 0.000000 0.000000 0.000000 0.000000 0.000000 0.000000 0.000000 0.000000 0.000000 0.000000 0.000000 0.000000 0.000000 0.000000 0.000000 0.000000 0.000000 0.000000 0.000000 0.000000 0.000000 0.000000 0.000000 0.000000 0.000000 0.000000 0.000000 0.000000 9759.279749 41691.500493 18534.197798 0.000000 47521.716367 0.000000 0.000000 0.000000 0.000000 0.000000 0.000000 0.000000 0.000000 0.000000 0.000000 0.000000 0.000000 0.000000 0.000000 0.000000 0.000000 0.000000 0.000000 0.000000 0.000000 0.000000 0.000000 0.000000 0.000000 0.000000 0.000000 0.000000 0.000000 0.000000 0.000000 0.000000 0.000000 0.000000 0.000000 0.000000 0.000000 0.000000 0.000000 0.000000 0.000000 0.000000 0.000000 0.000000 0.000000 0.000000 0.000000 0.000000 0.000000 0.000000 0.000000 0.000000 2090.772942 6641.256406 17092.965231 72811.394817 0.000000 37272.185883 0.000000 9851.863789 0.000000 44225.125753 182448.110819 0.000000 0.000000 0.000000 0.000000 35522.059621 1755.439904 3896.069946 30110.575426 2843.618746 0.000000 0.000000 0.000000 0.000000 0.000000 0.000000 0.000000 0.000000 0.000000 12380.333945 0.000000 0.000000 46013.265541 0.000000 0.000000 0.000000 89950.616712 135559.869401 0.000000 5180.221135 0.000000 0.000000 0.000000 0.000000 0.000000 0.000000 6383.544823 45489.138422 0.000000 7436.853934 2640.694098 0.000000 26029.245389 39430.694036 0.000000 0.000000 0.000000 0.000000 0.000000 0.000000 0.000000 21217.074142 0.000000 0.000000 0.000000 27459.853301 40269.655713 0.000000 8450.928933 0.000000 1667.725565 16379.145593 0.000000 16015.613585 0.000000 0.000000 0.000000 0.000000 41721.170449 0.000000 0.000000 0.000000 0.000000 20884.041188 0.000000 0.000000 22490.431153 0.000000 0.000000 0.000000 0.000000 0.000000 4473.396106 34405.286414 0.000000 0.000000 63807.359330 0.000000 0.000000 0.000000 75080.885447 0.000000 11782.175473 0.000000 0.000000 0.000000 9630.176948 0.000000 0.000000 151771.412541 124536.277068 0.000000 0.000000 0.000000 0.000000 0.000000 0.000000 39606.311392 17750.102483 0.000000 14827.998489 0.000000 0.000000 11887.848637 0.000000 14422.745417 1403.748003 0.000000 49184.702285 30933.271027 23218.633992 7858.313933 0.000000 0.000000 0.000000 0.000000 0.000000 0.000000 8679.173021 8575.984995 0.000000 0.000000 0.000000 0.000000 0.000000 154100.630120 28312.695451 0.000000 59903.577101 113081.368949 30187.654235 240112.460915 0.000000 22686.490867 0.000000 0.000000 0.000000 0.000000 0.000000 0.000000 95800.462498 0.000000 0.000000 90537.466983 0.000000 0.000000 34095.151408 46400.375457 16072.347963 0.000000 285.049507 0.000000 0.000000 67769.362283 15643.899353 0.000000 50108.343211 492.502260 0.000000 0.000000 0.000000 0.000000 0.000000 0.000000 10757.561829 20311.735618 86940.055459 0.000000 0.000000 284202.536408 0.000000 0.000000 42085.009198 0.000000 0.000000 0.000000 0.000000 0.000000 132148.204492 0.000000 0.000000 0.000000 152392.715639 229582.599384 0.000000 179590.387793 0.000000 0.000000 0.000000 0.000000 0.000000 0.000000 0.000000 121389.453417 0.000000 0.000000 0.000000 0.000000 0.000000 14522.631873 83491.945412 0.000000 0.000000 0.000000 65815.812682 0.000000 0.000000 0.000000 0.000000 0.000000 12156.535334 53005.739780 427155.014536 0.000000 63279.625538 6859.141830 311731.730252 0.000000 181979.870676 0.000000 292269.498799 0.000000 0.000000 0.000000 0.000000 40058.754154 75757.756962 0.000000 44718.124656 0.000000 29353.801884 0.000000 0.000000 3639.050763 0.000000 0.000000 0.000000 163743.302497 0.000000 0.000000 180892.306806 178588.200375 0.000000 180230.110229 36637.582415 105410.174761 0.000000 0.000000 0.000000 0.000000 0.000000 0.000000 0.000000 0.000000 0.000000 0.000000 35513.560769 157205.087372 401347.080331 110104.112335 1244.193174 86628.457550 11507.296278 145459.151980 0.000000 0.000000 4837.934779 0.000000 292382.844884 0.000000 0.000000 251327.079807 23853.157033 0.000000 0.000000 0.000000 0.000000 0.000000 82518.312066 0.000000 69947.287781 142820.119011 0.000000 181778.035726 0.000000 0.000000 277375.393363 0.000000 0.000000 195391.806372 0.000000 0.000000 0.000000 0.000000 0.000000 0.000000 44345.901081 0.000000 0.000000 0.000000 0.000000 0.000000 35337.735378 113119.174075 0.000000 25684.066792 0.000000 0.000000 63157.815778 254861.153893 0.000000 0.000000 0.000000 0.000000 31069.469072 221962.655395 0.000000 0.000000 11942.645151 0.000000 328022.764893 0.000000 0.000000 123319.848767 0.000000 0.000000 251457.501010 0.000000 0.000000 0.000000 0.000000 0.000000 0.000000 43747.825286 0.000000 293356.399225 0.000000 0.000000 157058.311417 64951.471267 0.000000 83637.133525 20822.475917 0.000000 0.000000 0.000000 0.000000 0.000000 2363.856047 0.000000 13563.136743 0.000000 44733.868574 0.000000 0.000000 5559.558201 0.000000 252550.795246 0.000000 0.000000 0.000000 0.000000 0.000000 321599.107138 0.000000 0.000000 0.000000 54456.514672 0.000000 0.000000 0.000000 0.000000 0.000000 11883.103902 0.000000 155805.101593 39029.340590 0.000000 0.000000 0.000000 145808.877891 55511.608695 0.000000 82204.310802 0.000000 16206.375636 0.000000 14930.267109 0.000000 0.000000 0.000000 0.000000 0.000000 0.000000 3682.480583 4372.721441 112197.276919 0.000000 0.000000 89058.301921 124346.222748 4968.406166 0.000000 0.000000 0.000000 0.000000 0.000000 308402.674374 0.000000 0.000000 0.000000 53114.165627 34714.214631 188110.194585 0.000000 225230.888708 110974.915120 0.000000 189162.596421 0.000000 0.000000 0.000000 0.000000 115046.464670 0.000000 0.000000 0.000000 0.000000 0.000000 218947.538599 0.000000 0.000000 109462.503138 0.000000 0.000000 0.000000 0.000000 0.000000 0.000000 0.000000 13367.119830 78614.707285 0.000000 0.000000 153990.075124 0.000000 0.000000 58034.625444 0.000000 0.000000 0.000000 0.000000 0.000000 9819.041185 0.000000 94832.783020 0.000000 0.000000 4699.223840 0.000000 0.000000 0.000000 0.000000 0.000000 57284.914445 0.000000 0.000000 7777.525561 0.000000 174532.902692 199887.018478 0.000000 183777.786527 161367.862257 0.000000 0.000000 148105.216735 149979.499644 202650.107562 0.000000 0.000000 0.000000 0.000000 0.000000 0.000000 0.000000 25425.872088 66101.404917 247664.558840 0.000000 56932.134153 0.000000 141930.161699 0.000000 258659.644646 249034.932611 0.000000 481465.887302 0.000000 0.000000 0.000000 0.000000 0.000000 0.000000 0.000000 2308.700461 328585.133877 0.000000 149125.722337 0.000000 0.000000 243738.685049 2565.720073 0.000000 0.000000 0.000000 0.000000 0.000000 24604.994759 482099.120497 76828.616041 0.000000 0.000000 0.000000 0.000000 34168.515422 42301.156067 0.000000 0.000000 0.000000 0.000000 0.000000 56391.414456 181276.554830 0.000000 0.000000 0.000000 0.000000 0.000000 0.000000 0.000000 0.000000 40940.406488 0.000000 125011.623390 0.000000 0.000000 0.000000 198800.145458 0.000000 0.000000 0.000000 23407.096588 0.000000 0.000000 0.000000 0.000000 171275.127206 0.000000 0.000000 147356.491171 0.000000 0.000000 0.000000 119711.464968 0.000000 161653.931245 71428.257914 111763.154358 133452.161297 214263.290951 0.000000 0.000000 0.000000 0.000000 0.000000 0.000000 0.000000 34304.849020 98384.178711 37388.489964 6545.031158 0.000000 30775.638294 305369.815680 0.000000 94203.699970 0.000000 108707.032484 0.000000 0.000000 67322.967440 0.000000 0.000000 28378.596049 0.000000 0.000000 0.000000 21564.674783 0.000000 0.000000 0.000000 0.000000 89499.544401 38495.764925 88406.144193 0.000000 0.000000 311933.163941 44680.855655 0.000000 0.000000 114298.649314 0.000000 0.000000 107644.011887 11272.303168 0.000000 6479.397080 0.000000 0.000000 0.000000 0.000000 0.000000 6633.444331 22568.397772 62626.182956 42000.316409 20844.544872 66868.608438 0.000000 0.000000 184445.010987 59378.002603 0.000000 0.000000 137021.745771 0.000000 0.000000 0.000000 111822.939369 255058.439332 343075.778880 0.000000 0.000000 0.000000 48255.063038 0.000000 145423.331135 0.000000 9171.991794 0.000000 68720.496961 108944.113736 0.000000 0.000000 51920.561458 0.000000 0.000000 39272.391442 87534.421510 0.000000 0.000000 0.000000 0.000000 0.000000 0.000000 0.000000 0.000000 0.000000 3207.762235 13536.362690 0.000000 0.000000 196335.989386 0.000000 0.000000 0.000000 100305.053736 0.000000 0.000000 0.000000 0.000000 0.000000 62105.737811 0.000000 0.000000 0.000000 127277.670690 0.000000 0.000000 361560.145683 0.000000 41669.789612 34374.628364 0.000000 71555.113814 157103.278950 0.000000 0.000000 0.000000 0.000000 346169.200050 0.000000 0.000000 37242.419367 0.000000 0.000000 0.000000 0.000000 0.000000 0.000000 0.000000 0.000000 0.000000 0.000000 16643.611039 75945.972091 0.000000 168907.071051 0.000000 0.000000 0.000000 0.000000 0.000000 0.000000 0.000000 76476.082374 0.000000 0.000000 0.000000 0.000000 0.000000 0.000000 184822.939363 0.000000 3027.826495 202375.033573 231286.211489 0.000000 0.000000 0.000000 296377.290546 18332.251210 46017.888678 487757.649819 521860.316004 49076.831199 14718.585780 103656.850655 241076.518031 0.000000 14325.890067 90196.169705 0.000000 66235.938686 0.000000 0.000000 0.000000 0.000000 0.000000 0.000000 25826.478555 102162.623463 0.000000 0.000000 149511.570022 52771.263890 0.000000 0.000000 0.000000 0.000000 0.000000 16781.551832 0.000000 233742.083497 0.000000 190601.863481 0.000000 367325.484966 192681.236672 109050.891573 0.000000 284758.660316 0.000000 0.000000 0.000000 0.000000 0.000000 0.000000 0.000000 137472.606155 0.000000 0.000000 69876.533089 0.000000 231951.015560 0.000000 16877.981498 215927.572870 128263.632955 0.000000 0.000000 0.000000 0.000000 0.000000 0.000000 0.000000 6649.667544 20383.631952 0.000000 209768.985517 0.000000 0.000000 0.000000 73310.437896 205101.019100 0.000000 291245.122392 0.000000 0.000000 0.000000 0.000000 6952.436979 0.000000 224258.600755 0.000000 35531.830462 170320.963711 60623.956731 0.000000 0.000000 0.000000 0.000000 211448.000731 28239.052377 0.000000 290861.821174 127177.409772 0.000000 0.000000 0.000000 0.000000 124409.409351 14786.021530 279871.711525 38832.283525 0.000000 0.000000 0.000000 0.000000 0.000000 0.000000 0.000000 9696.301490 50457.566464 0.000000 0.000000 0.000000 0.000000 0.000000 24807.514044 64393.023787 0.000000 0.000000 0.000000 0.000000 0.000000 20073.059613 23778.069427 0.000000 0.000000 0.000000 0.000000 0.000000 23296.596941 61515.604559 0.000000 0.000000 0.000000 0.000000 0.000000 9597.292469 52622.206296 0.000000 0.000000 0.000000 0.000000 0.000000 1435.626714 26840.229502 0.000000 0.000000 0.000000 0.000000 0.000000 929.179917 18043.615992 0.000000 0.000000 0.000000 0.000000 0.000000 1655.714607 22693.588415 0.000000 0.000000 0.000000 0.000000 0.000000 5665.685909 29422.794723 0.000000 0.000000 0.000000 0.000000 0.000000 32669.497465 36489.516162 0.000000 0.000000 0.000000 0.000000 0.000000 34627.103194 4935.309552 0.000000 0.000000 0.000000 0.000000 0.000000 14032.153963 0.000000 0.000000 0.000000 0.000000 0.000000 0.000000 13641.282016 38011.492314 0.000000 0.000000 0.000000 0.000000 0.000000 4577.056307 46978.634199 0.000000 0.000000 0.000000 0.000000 0.000000 5554.245170 66750.010671 0.000000 0.000000 0.000000 0.000000 0.000000 25008.300951 104316.113513 0.000000 0.000000 0.000000 0.000000 0.000000 55414.055403 71621.614047 0.000000 0.000000 0.000000 0.000000 0.000000 20582.077353 0.000000 0.000000 0.000000 0.000000 0.000000 0.000000 16136.578530 64859.453146 0.000000 0.000000 0.000000 0.000000 0.000000 5929.714134 5929.624389 0.000000 0.000000 0.000000 0.000000 0.000000 0.000000 0.000000 0.000000 0.000000 0.000000 0.000000 0.000000 0.000000 0.000000 0.000000 0.000000 0.000000 0.000000 0.000000 0.000000 0.000000 0.000000 0.000000 0.000000 0.000000 0.000000 11196.985700 29030.674564 0.000000 0.000000 0.000000 0.000000 0.000000 17577.836783 104143.301860 0.000000 0.000000 0.000000 0.000000 0.000000 3159.506086 18229.995859 0.000000 0.000000 0.000000 0.000000 0.000000 4895.155136 69142.241680 0.000000 0.000000 0.000000 0.000000 0.000000 2851.776997 27585.291143 0.000000 0.000000 0.000000 0.000000 0.000000 125.667473 0.000000 0.000000 0.000000 0.000000 0.000000 0.000000 37241.564354 90935.880198 0.000000 0.000000 0.000000 0.000000 0.000000 66964.145816 119476.559850 0.000000 0.000000 0.000000 0.000000 0.000000 38072.628286 37122.440658 0.000000 0.000000 0.000000 0.000000 0.000000 50299.507003 123099.732316 0.000000 0.000000 0.000000 0.000000 0.000000 11568.299859 0.000000 0.000000 0.000000 0.000000 0.000000 0.000000 0.000000 0.000000 0.000000 0.000000 0.000000 0.000000 0.000000 15433.864743 115404.836263 0.000000 0.000000 0.000000 0.000000 0.000000 15811.125122 93382.688405 0.000000 0.000000 0.000000 0.000000 0.000000 26531.736427 35375.140062 0.000000 0.000000 0.000000 0.000000 0.000000 68011.925377 217364.859030 0.000000 0.000000 0.000000 0.000000 0.000000 25371.721070 80864.761698 0.000000 0.000000 0.000000 0.000000 0.000000 0.000000 0.000000 0.000000 0.000000 0.000000 0.000000 0.000000 0.000000 0.000000 0.000000 0.000000 0.000000 0.000000 0.000000 0.000000 0.000000 0.000000 0.000000 0.000000 0.000000 0.000000 10266.482384 155358.858838 0.000000 0.000000 0.000000 0.000000 0.000000 27136.133775 328304.869009 0.000000 0.000000 0.000000 0.000000 0.000000 16886.000873 192235.244236 0.000000 0.000000 0.000000 0.000000 0.000000 2239.300798 17062.699996 0.000000 0.000000 0.000000 0.000000 0.000000 8208.538327 0.000000 0.000000 0.000000 0.000000 0.000000 0.000000 50221.725462 43661.699733 0.000000 0.000000 0.000000 0.000000 0.000000 35529.217986 42389.304369 0.000000 0.000000 0.000000 0.000000 0.000000 4215.054332 0.000000 0.000000 0.000000 0.000000 0.000000 0.000000 15591.685819 36585.318198 0.000000 0.000000 0.000000 0.000000 0.000000 43788.915426 224085.628752 0.000000 0.000000 0.000000 0.000000 0.000000 12865.124385 11619.935168 0.000000 0.000000 0.000000 0.000000 0.000000 13518.275452 2437.708881 0.000000 0.000000 0.000000 0.000000 0.000000 7216.637320 0.000000 0.000000 0.000000 0.000000 0.000000 0.000000 0.000000 0.000000 0.000000 0.000000 0.000000 0.000000 0.000000 6411.243582 13029.782208 0.000000 0.000000 0.000000 0.000000 0.000000 42190.924793 221770.789770 0.000000 0.000000 0.000000 0.000000 0.000000 26308.645321 76397.234760 0.000000 0.000000 0.000000 0.000000 0.000000 3198.773948 11445.583308 0.000000 0.000000 0.000000 0.000000 0.000000 2160.620580 14522.256341 0.000000 0.000000 0.000000 0.000000 0.000000 8525.606145 53562.937637 0.000000 0.000000 0.000000 0.000000 0.000000 20228.494311 241039.620970 0.000000 0.000000 0.000000 0.000000 0.000000 10018.564397 51820.227887 0.000000 0.000000 0.000000 0.000000 0.000000 44879.930339 130753.314209 0.000000 0.000000 0.000000 0.000000 0.000000 82809.032506 541663.094839 0.000000 0.000000 0.000000 0.000000 0.000000 36542.701579 273029.939549 0.000000 0.000000 0.000000 0.000000 0.000000 3796.109157 0.000000 0.000000 0.000000 0.000000 0.000000 0.000000 0.000000 0.000000 0.000000 0.000000 0.000000 0.000000 0.000000 14798.346839 106479.274922 0.000000 0.000000 0.000000 0.000000 0.000000 29459.330245 190769.795917 0.000000 0.000000 0.000000 0.000000 0.000000 22529.105349 53173.765106 0.000000 0.000000 0.000000 0.000000 0.000000 35728.900500 178331.263716 0.000000 0.000000 0.000000 0.000000 0.000000 35144.480205 361536.032947 0.000000 0.000000 0.000000 0.000000 0.000000 17739.626312 75535.186082 0.000000 0.000000 0.000000 0.000000 0.000000 15018.419773 6689.717001 0.000000 0.000000 0.000000 0.000000 0.000000 38542.039154 136286.074258 0.000000 0.000000 0.000000 0.000000 0.000000 17469.467735 142723.960471 0.000000 0.000000 0.000000 0.000000 0.000000 5451.020300 70575.130401 0.000000 0.000000 0.000000 0.000000 0.000000 11883.082604 150492.607898 0.000000 0.000000 0.000000 0.000000 0.000000 2496.474111 35239.957527 47631.748668 14107.922971 27998.180351 22211.517089 21901.013838 57545.762641 25155.168870 17554.300245 0.000000 0.000000 0.000000 48271.724460 0.000000 0.000000 0.000000 0.000000 0.000000 0.000000 0.000000 0.000000 0.000000 0.000000 0.000000 0.000000 0.000000 0.000000 0.000000 0.000000 0.000000 0.000000 0.000000 0.000000 0.000000 0.000000 0.000000 0.000000 0.000000 0.000000 0.000000 0.000000 0.000000 0.000000 0.000000 0.000000 0.000000 0.000000 0.000000 0.000000 0.000000 0.000000 0.000000 0.000000 0.000000 0.000000 0.000000 0.000000 0.000000 0.000000 0.000000 0.000000 0.000000 0.000000 0.000000 0.000000 0.000000 0.000000 0.000000 0.000000 0.000000 0.000000 0.000000 0.000000 0.000000 0.000000 0.000000 0.000000 0.000000 0.000000 0.000000 0.000000 0.000000 0.000000 0.000000 0.000000 0.000000 0.000000 0.000000 0.000000 0.000000 0.000000 0.000000 0.000000 0.000000 0.000000 0.000000 0.000000 0.000000 0.000000 0.000000 0.000000 0.000000 0.000000 0.000000 0.000000 0.000000 0.000000 0.000000 0.000000 0.000000 0.000000 0.000000 0.000000 0.000000 0.000000 0.000000 0.000000 0.000000 0.000000 0.000000 0.000000 0.000000 0.000000 0.000000 0.000000 0.000000 0.000000 0.000000 0.000000 0.000000 0.000000 0.000000 0.000000 0.000000 0.000000 0.000000 0.000000 0.000000 0.000000 0.000000 0.000000 0.000000 0.000000 0.000000 0.000000 0.000000 0.000000 0.000000 0.000000 0.000000 0.000000 0.000000 0.000000 0.000000 0.000000 0.000000 0.000000 0.000000 0.000000 0.000000 0.000000 0.000000 0.000000 0.000000 0.000000 0.000000 0.000000 0.000000
</DataArray>
<DataArray type="Float64" Name="Velocity" NumberOfComponents="3" format="ascii">