<VTKFile type="PolyData">
<PolyData>
<Piece NumberOfPoints="1840" NumberOfVerts="1840" NumberOfLines="0" NumberOfStrips="0" NumberOfPolys="0">
<PointData>
<DataArray type="Float64" Name="Pressure" format="ascii">
 0.000000 0.000000 0.000000 0.000000 0.000000 0.000000 0.000000 0.000000 0.000000 0.000000 0.000000 0.000000 0.000000 0.000000 0.000000 0.000000 0.000000 0.000000 0.000000 0.000000 0.000000 0.000000 0.000000 0.000000 0.000000 0.000000 0.000000 0.000000 0.000000 0.000000 0.000000 0.000000 0.000000 0.000000 0.000000 0.000000 0.000000 0.000000 0.000000 0.000000 0.000000 0.000000 0.000000 0.000000 0.000000 0.000000 0.000000 0.000000 0.000000 0.000000 0.000000 0.000000 0.000000 0.000000 0.000000 0.000000 0.000000 0.000000 0.000000 0.000000 0.000000 0.000000 0.000000 0.000000 0.000000 0.000000 0.000000 0.000000 0.000000 0.000000 0.000000 0.000000 0.000000 0.000000 0.000000 0.000000 0.000000 0.000000 0.000000 0.000000 0.000000 0.000000 0.000000 0.000000 0.000000 0.000000 0.000000 0.000000 0.000000 0.000000 0.000000 0.000000 0.000000 0.000000 0.000000 0.000000 0.000000 0.000000 0.000000 0.000000 0.000000 0.000000 0.000000 0.000000 0.000000 0.000000 0.000000 0.000000 0.000000 0.000000 0.000000 0.000000 0.000000 0.000000 0.000000 0.000000 8351.387890 23913.487026 16368.123730 20442.077696 10873.058000 7983.612001 3332.497018 6824.302525 15899.142843 9617.600551 0.000000 0.000000 0.000000 0.000000 0.000000 0.000000 0.000000 0.000000 0.000000 0.000000 0.000000 0.000000 0.000000 0.000000 0.000000 0.000000 0.000000 0.000000 0.000000 0.000000 0.000000 0.000000 0.000000 0.000000 0.000000 0.000000 0.000000 0.000000 0.000000 0.000000 0.000000 0.000000 0.000000 0.000000 0.000000 0.000000 0.000000 0.000000 0.000000 0.000000 0.000000 0.000000 0.000000 0.000000 0.000000 0.000000 0.000000 54763.486874 148697.100862 80656.115166 90284.506363 39138.286472 30147.133518 25945.514706 38162.519068 18277.885320 0.000000 0.000000 0.000000 0.000000 0.000000 0.000000 0.000000 0.000000 0.000000 0.000000 0.000000 0.000000 0.000000 0.000000 0.000000 0.000000 0.000000 0.000000 0.000000 0.000000 0.000000 0.000000 0.000000 0.000000 0.000000 0.000000 0.000000 0.000000 0.000000 0.000000 0.000000 0.000000 0.000000 0.000000 0.000000 0.000000 0.000000 0.000000 0.000000 0.000000 0.000000 0.000000 0.000000 0.000000 0.000000 0.000000 0.000000 0.000000 44014.262109 115517.570445 162506.452176 131313.405907 87804.468095 149061.509796 9120.373989 126772.171935 28105.109623 101814.671996 68242.588670 0.000000 85642.558156 110515.275094 0.000000 110747.189675 63012.084095 155666.405336 46596.420307 76043.511236 29088.182143 89890.379350 76822.577636 73160.657042 0.000000 0.000000 0.000000 87338.377876 81378.799204 31125.725926 47747.929839 62100.668541 119667.781994 91421.659735 52814.931087 0.000000 0.000000 104735.068732 66318.988568 0.000000 0.000000 0.000000 0.000000 0.000000 0.000000 0.000000 15391.896908 115432.414353 192776.450393 123783.001573 168485.380530 28939.539493 95041.888767 80155.345233 100395.922177 82299.927291 87278.510539 154690.654444 86573.082129 89729.607287 66942.259716 105231.415654 106963.294315 51005.021635 159417.322377 73317.037217 0.000000 52284.004823 62362.936523 71613.149803 41108.383761 96010.830900 123858.700032 128646.601409 0.000000 20597.099204 37947.617185 16453.486449 65880.542918 114483.508387 0.000000 27748.730125 100881.272857 33430.728881 0.000000 81963.253622 5212.724957 0.000000 0.000000 0.000000 0.000000 0.000000 18857.077407 122841.364824 219563.258758 29816.020707 60217.941758 133644.330316 83540.175572 120822.544321 47185.718501 86214.709431 108503.670961 55505.834936 77798.761040 48090.574361 89601.989224 64028.793106 140425.241237 91293.238302 60461.988563 59476.787349 49264.852677 55966.258075 120983.458884 66443.867982 30339.996072 0.000000 94322.396812 44310.177137 74673.094868 135154.870825 53685.273442 90667.836766 90239.451088 0.000000 52817.200156 59912.310967 63063.564661 83584.580645 47603.910527 8339.180982 88225.966837 0.000000 0.000000 0.000000 0.000000 0.000000 29764.250724 155160.544065 92473.336165 101906.952357 120050.038273 85885.876473 68464.449836 65281.329995 71153.696355 67436.363855 44423.130974 165228.399807 12088.202591 74374.696712 113964.424825 76402.172383 59975.929739 62230.640881 60552.855809 24741.063053 0.000000 127126.531103 0.000000 24079.013637 85418.912060 315.775184 46405.631864 14454.909887 109249.245620 40278.835820 89071.161164 15704.764322 0.000000 109568.905595 63720.917897 73255.105704 70661.834909 13565.611340 12096.337990 0.000000 67423.011693 0.000000 0.000000 0.000000 0.000000 0.000000 17875.993993 85298.672555 128439.440758 86546.706429 6446.949570 116447.232226 74414.541606 94215.904212 76172.109250 0.000000 137304.817013 69220.427616 83204.233289 183108.217900 82373.104767 93614.302763 90481.330346 30775.912545 103474.603730 19596.444270 26638.246165 55638.852207 37464.436346 43944.444971 28575.844369 68727.977162 86008.174132 118985.266013 26643.278730 28408.722906 85264.742813 15706.579197 0.000000 8809.858471 22797.116332 24460.481469 49885.457747 58447.603573 0.000000 5003.723355 16278.488063 0.000000 0.000000 0.000000 0.000000 0.000000 29695.005576 109665.090371 143597.175643 0.000000 19784.676900 2458.101981 36528.700055 74240.315797 83041.301476 34133.688883 24975.695142 0.000000 76117.742993 102687.969527 53182.914199 0.000000 101914.448262 65137.448428 66818.502677 19930.052848 29509.691414 58340.997834 25958.315932 54686.593057 28585.108784 77836.332489 21990.214068 32289.185750 74469.777130 5045.855985 0.000000 1538.337423 0.000000 32225.418380 0.000000 28091.654709 0.000000 72525.634488 0.000000 31469.487181 50755.656729 0.000000 0.000000 0.000000 0.000000 0.000000 59723.996933 190229.993187 67305.443006 35764.707933 71113.354302 47885.647075 96606.333171 2325.799996 144239.444094 16911.775932 93547.036172 21896.284493 60693.472669 58908.952974 92240.578934 48312.015293 1162.266557 32358.654438 51852.432820 25971.884239 53574.256453 24174.949012 82269.759382 29737.393084 0.000000 7049.564771 48586.915844 2140.237192 76967.782797 52053.131767 51975.064986 0.000000 0.000000 60418.788870 0.000000 0.000000 25952.510631 38536.048494 29640.634403 0.000000 26727.918246 0.000000 0.000000 0.000000 0.000000 0.000000 50061.543249 148124.164395 17052.603845 27380.171242 96418.027652 84269.536558 0.000000 75162.139836 0.000000 82077.003880 2092.930140 0.000000 14979.833045 12168.788171 3364.369658 0.000000 0.000000 57277.957391 45780.266357 10283.825780 36833.662047 17469.308723 0.000000 24782.800652 66351.648420 105547.916149 0.000000 0.000000 70393.438767 6679.048213 114605.878720 81772.974453 69226.651190 0.000000 49431.148126 51747.594046 0.000000 4780.934731 0.000000 0.000000 52188.422742 0.000000 0.000000 0.000000 0.000000 0.000000 47099.695280 177071.419512 0.000000 0.000000 0.000000 35213.424518 0.000000 55259.525664 68502.463545 57547.392387 0.000000 27917.619858 20485.218371 36555.828553 14507.262456 33972.582393 9000.766087 56463.443132 67198.929557 62562.067592 0.000000 30893.855156 6359.598801 49114.636839 0.000000 0.000000 82316.328213 36197.723456 54457.583606 0.000000 61936.116795 17326.418373 36907.455663 0.000000 55061.817501 102855.514081 103298.662557 0.000000 15284.130320 150.760133 0.000000 0.000000 0.000000 0.000000 0.000000 0.000000 32289.592914 148501.683483 79746.697321 103984.402877 0.000000 0.000000 67451.514769 89559.950828 108690.247968 0.000000 0.000000 0.000000 0.000000 40213.647938 25512.419574 18334.100747 11309.370492 27392.751169 63074.914970 89714.279726 19377.151377 0.000000 29617.410508 0.000000 0.000000 0.000000 56735.385932 0.000000 70151.427145 0.000000 13990.754563 21325.925106 0.000000 0.000000 3007.485904 0.000000 70705.131987 21176.833243 30507.674113 0.000000 0.000000 0.000000 0.000000 0.000000 0.000000 0.000000 61769.273534 195750.370829 294106.315099 241729.409202 407007.101960 83229.705076 0.000000 252290.173304 216246.930012 34497.395715 0.000000 0.000000 0.000000 0.000000 0.000000 0.000000 24906.752835 0.000000 0.000000 0.000000 0.000000 136797.610687 31744.724041 0.000000 28208.439274 0.000000 35262.483123 35845.548175 23721.392109 58425.385495 0.000000 0.000000 0.000000 98455.934984 8103.736060 0.000000 2788.112193 3254.361550 34939.014842 30838.829192 0.000000 0.000000 0.000000 0.000000 0.000000 0.000000 56714.983593 202716.802631 209262.629128 284059.192544 55313.495786 374585.608840 22899.682230 108762.428308 0.000000 0.000000 332240.448083 254868.244298 316343.624487 253265.945110 0.000000 61558.577851 0.000000 0.000000 63099.733329 0.000000 135336.389465 0.000000 63518.319565 0.000000 0.000000 0.000000 0.000000 62737.135935 0.000000 0.000000 19651.335728 0.000000 20801.643923 0.000000 10719.947275 36609.380909 0.000000 0.000000 0.000000 0.000000 70546.146443 0.000000 0.000000 0.000000 0.000000 0.000000 25816.524775 98462.445775 0.000000 0.000000 0.000000 112829.939751 109617.467053 389491.540834 93101.136925 313220.713160 309595.504325 4300.974715 266644.425179 272743.222764 0.000000 124198.927008 93067.256202 90141.148987 329258.830031 65113.233747 0.000000 6165.881627 0.000000 114901.811420 0.000000 0.000000 0.000000 68983.649781 3028.640946 26437.584653 0.000000 77676.466565 47871.538192 0.000000 0.000000 26818.352751 36355.692500 0.000000 18610.870219 0.000000 0.000000 0.000000 0.000000 0.000000 0.000000 0.000000 17273.942449 59961.424156 304454.457514 0.000000 123672.094159 327692.928637 0.000000 226349.858151 162566.066994 0.000000 0.000000 0.000000 0.000000 0.000000 130638.347345 50378.995243 59731.836216 280903.317131 0.000000 0.000000 415715.925123 52007.268738 15019.384134 228993.895987 0.000000 0.000000 0.000000 144491.645349 0.000000 0.000000 0.000000 72901.083872 0.000000 0.000000 57965.970332 0.000000 11534.865085 29840.664693 0.000000 3016.466134 0.000000 0.000000 0.000000 0.000000 0.000000 0.000000 57118.904410 121237.115202 1276.918727 188727.652315 144349.775880 0.000000 0.000000 0.000000 15064.246209 0.000000 0.000000 0.000000 0.000000 0.000000 272721.463031 198402.485038 0.000000 77723.402737 0.000000 40295.010820 0.000000 0.000000 346572.577108 363561.886664 159897.882765 764033.870830 5832.753131 91934.211876 0.000000 12884.289922 0.000000 0.000000 0.000000 0.000000 0.000000 0.000000 113752.181553 0.000000 22947.975816 0.000000 18584.195938 0.000000 0.000000 0.000000 0.000000 0.000000 46065.633363 125634.879402 47085.754055 0.000000 0.000000 302023.719330 250413.356003 0.000000 0.000000 0.000000 0.000000 0.000000 0.000000 17195.743036 308786.703832 32445.009883 0.000000 0.000000 0.000000 0.000000 0.000000 43283.328387 144076.832374 0.000000 0.000000 24723.528038 0.000000 31670.805443 199210.180235 128858.806013 0.000000 56173.564054 0.000000 0.000000 0.000000 0.000000 0.000000 0.000000 19052.582060 0.000000 19481.259707 0.000000 0.000000 0.000000 0.000000 0.000000 52955.318638 134240.214420 0.000000 0.000000 0.000000 0.000000 0.000000 0.000000 0.000000 0.000000 0.000000 0.000000 0.000000 0.000000 0.000000 0.000000 0.000000 0.000000 0.000000 0.000000 0.000000 0.000000 0.000000 0.000000 0.000000 19238.453729 2216.938563 0.000000 0.000000 0.000000 0.000000 226032.901986 179743.506532 37902.742841 0.000000 0.000000 0.000000 5779.114542 82017.474480 0.000000 0.000000 0.000000 0.000000 0.000000 0.000000 0.000000 50977.177247 86262.701587 0.000000 0.000000 0.000000 0.000000 308041.111008 308041.111008 0.000000 317450.167806 0.000000 36023.206145 0.000000 0.000000 370151.321830 0.000000 0.000000 0.000000 0.000000 0.000000 0.000000 0.000000 0.000000 0.000000 0.000000 0.000000 0.000000 0.000000 298598.470888 0.000000 20344.539824 0.000000 88579.597708 0.000000 0.000000 76413.047650 0.000000 0.000000 0.000000 5598.751876 0.000000 0.000000 0.000000 0.000000 0.000000 0.000000 58027.387945 125192.121321 0.000000 0.000000 0.000000 0.000000 0.000000 0.000000 0.000000 0.000000 0.000000 0.000000 0.000000 0.000000 0.000000 0.000000 281400.012638 0.000000 0.000000 0.000000 0.000000 0.000000 0.000000 0.000000 0.000000 0.000000 0.000000 0.000000 0.000000 0.000000 0.000000 0.000000 8802.200147 0.000000 0.000000 58618.933949 0.000000 60718.949105 0.000000 0.000000 0.000000 0.000000 0.000000 0.000000 0.000000 0.000000 50117.180921 146863.345142 0.000000 0.000000 0.000000 0.000000 0.000000 20485.826320 95916.297268 0.000000 0.000000 0.000000 0.000000 0.000000 49586.020651 168461.009961 0.000000 0.000000 0.000000 0.000000 0.000000 63671.675138 153198.594725 0.000000 0.000000 0.000000 0.000000 0.000000 30795.461246 65713.527368 0.000000 0.000000 0.000000 0.000000 0.000000 58430.279248 133449.999195 0.000000 0.000000 0.000000 0.000000 0.000000 37078.665581 87720.787988 0.000000 0.000000 0.000000 0.000000 0.000000 13814.520809 79334.863790 0.000000 0.000000 0.000000 0.000000 0.000000 18156.837542 91683.170552 0.000000 0.000000 0.000000 0.000000 0.000000 42069.000821 128052.378249 0.000000 0.000000 0.000000 0.000000 0.000000 59910.681526 140805.729737 0.000000 0.000000 0.000000 0.000000 0.000000 48411.974755 90976.116479 0.000000 0.000000 0.000000 0.000000 0.000000 21971.086818 53638.769729 0.000000 0.000000 0.000000 0.000000 0.000000 32767.577856 131476.667178 0.000000 0.000000 0.000000 0.000000 0.000000 25457.093351 86610.070365 0.000000 0.000000 0.000000 0.000000 0.000000 33921.027455 119750.186845 0.000000 0.000000 0.000000 0.000000 0.000000 26899.323823 48271.091423 0.000000 0.000000 0.000000 0.000000 0.000000 56881.908606 81039.079388 0.000000 0.000000 0.000000 0.000000 0.000000 26339.840570 39914.260113 0.000000 0.000000 0.000000 0.000000 0.000000 16125.745458 46944.296974 0.000000 0.000000 0.000000 0.000000 0.000000 46492.057390 161774.129938 0.000000 0.000000 0.000000 0.000000 0.000000 30519.097173 87770.917134 0.000000 0.000000 0.000000 0.000000 0.000000 30021.887425 78424.671830 0.000000 0.000000 0.000000 0.000000 0.000000 13949.526506 20929.511698 0.000000 0.000000 0.000000 0.000000 0.000000 20383.133049 63003.519029 0.000000 0.000000 0.000000 0.000000 0.000000 39697.520581 64785.836132 0.000000 0.000000 0.000000 0.000000 0.000000 55005.468861 127221.968333 0.000000 0.000000 0.000000 0.000000 0.000000 16967.058991 50318.896641 0.000000 0.000000 0.000000 0.000000 0.000000 14196.853368 34750.464120 0.000000 0.000000 0.000000 0.000000 0.000000 32999.060558 67997.931795 0.000000 0.000000 0.000000 0.000000 0.000000 41418.228896 82870.829817 0.000000 0.000000 0.000000 0.000000 0.000000 9919.170641 33863.785298 0.000000 0.000000 0.000000 0.000000 0.000000 5822.032163 29160.026028 0.000000 0.000000 0.000000 0.000000 0.000000 16300.176114 69494.438808 0.000000 0.000000 0.000000 0.000000 0.000000 11499.734428 21573.915564 0.000000 0.000000 0.000000 0.000000 0.000000 21578.828848 47190.090922 0.000000 0.000000 0.000000 0.000000 0.000000 14509.581150 43148.581122 0.000000 0.000000 0.000000 0.000000 0.000000 11065.807003 55829.409241 0.000000 0.000000 0.000000 0.000000 0.000000 5984.855573 21963.640914 0.000000 0.000000 0.000000 0.000000 0.000000 20071.171714 24548.125642 0.000000 0.000000 0.000000 0.000000 0.000000 51108.025659 90807.075177 0.000000 0.000000 0.000000 0.000000 0.000000 18775.880963 20986.865354 0.000000 0.000000 0.000000 0.000000 0.000000 28745.273232 74481.937956 0.000000 0.000000 0.000000 0.000000 0.000000 23457.989209 45597.955476 0.000000 0.000000 0.000000 0.000000 0.000000 15302.025272 22833.108212 0.000000 0.000000 0.000000 0.000000 0.000000 27481.867077 102419.942098 0.000000 0.000000 0.000000 0.000000 0.000000 32295.286355 115843.071528 0.000000 0.000000 0.000000 0.000000 0.000000 23545.389884 90411.020017 0.000000 0.000000 0.000000 0.000000 0.000000 22229.411881 129060.028274 0.000000 0.000000 0.000000 0.000000 0.000000 28214.241115 149063.465605 0.000000 0.000000 0.000000 0.000000 0.000000 49188.356390 98879.189538 0.000000 0.000000 0.000000 0.000000 0.000000 27410.866308 34048.717890 0.000000 0.000000 0.000000 0.000000 0.000000 13697.405067 23374.531414 0.000000 0.000000 0.000000 0.000000 0.000000 22987.225322 4207.008464 0.000000 0.000000 0.000000 0.000000 0.000000 44903.594627 28253.900525 0.000000 0.000000 0.000000 0.000000 0.000000 11087.729523 0.000000 0.000000 0.000000 0.000000 0.000000 0.000000 0.000000 0.000000 0.000000 0.000000 0.000000 0.000000 0.000000 8558.531454 0.000000 0.000000 0.000000 0.000000 0.000000 0.000000 3721.211570 0.000000 0.000000 0.000000 0.000000 0.000000 0.000000 0.000000 0.000000 0.000000 0.000000 0.000000 0.000000 0.000000 5291.727981 0.000000 0.000000 0.000000 0.000000 0.000000 0.000000 0.000000 0.000000 0.000000 0.000000 0.000000 0.000000 0.000000 0.000000 0.000000 0.000000 0.000000 0.000000 0.000000 0.000000 5482.623745 39775.285739 0.000000 0.000000 0.000000 0.000000 0.000000 9379.528948 15492.397234 0.000000 0.000000 0.000000 0.000000 0.000000 19267.939466 33327.941956 0.000000 0.000000 0.000000 0.000000 0.000000 26401.218159 115039.545747 0.000000 0.000000 0.000000 0.000000 0.000000 18066.272206 162633.628636 0.000000 0.000000 0.000000 0.000000 0.000000 98.103211 0.000000 0.000000 0.000000 0.000000 0.000000 0.000000 7780.223253 0.000000 0.000000 0.000000 0.000000 0.000000 0.000000 28077.527722 12530.992914 0.000000 0.000000 0.000000 0.000000 0.000000 19897.383114 36012.415802 0.000000 0.000000 0.000000 0.000000 0.000000 51811.933974 312901.027144 0.000000 0.000000 0.000000 0.000000 0.000000 31828.300502 123669.284315 0.000000 0.000000 0.000000 0.000000 0.000000 12322.927097 19902.390265 0.000000 0.000000 0.000000 0.000000 0.000000 63139.742924 233498.582679 0.000000 0.000000 0.000000 0.000000 0.000000 75302.684811 304346.748067 0.000000 0.000000 0.000000 0.000000 0.000000 83612.559725 304871.677861 0.000000 0.000000 0.000000 0.000000 0.000000 87664.800496 297906.374454 0.000000 0.000000 0.000000 0.000000 0.000000 59944.237946 254967.302237 0.000000 0.000000 0.000000 0.000000 0.000000 20178.748583 221583.841406 0.000000 0.000000 0.000000 0.000000 0.000000 3888.684268 51682.671830 66308.138660 59866.792118 34830.094335 3556.709377 46767.321050 0.000000 0.000000 44833.118068 44979.810624 4397.099821 0.000000 0.000000 0.000000 0.000000 0.000000 25054.162435 16397.289196 43203.953176 0.000000 0.000000 0.000000 0.000000 0.000000 0.000000 0.000000 0.000000 0.000000 0.000000 0.000000 0.000000 0.000000 0.000000 0.000000 0.000000 0.000000 0.000000 0.000000 0.000000 0.000000 0.000000 0.000000 0.000000 0.000000 0.000000 0.000000 0.000000 0.000000 0.000000 0.000000 0.000000 0.000000 0.000000 0.000000 0.000000 0.000000 0.000000 0.000000 0.000000 0.000000 0.000000 0.000000 0.000000 0.000000 0.000000 0.000000 0.000000 0.000000 0.000000 0.000000 0.000000 0.000000 0.000000 0.000000 0.000000 0.000000 0.000000 0.000000 0.000000 0.000000 0.000000 0.000000 0.000000 0.000000 0.000000 0.000000 0.000000 0.000000 0.000000 0.000000 0.000000 0.000000 0.000000 0.000000 0.000000 0.000000 0.000000 0.000000 0.000000 0.000000 0.000000 0.000000 0.000000 0.000000 0.000000 0.000000 0.000000 0.000000 0.000000 0.000000 0.000000 0.000000 0.000000 0.000000 0.000000 0.000000 0.000000 0.000000 0.000000 0.000000 0.000000 0.000000 0.000000 0.000000 0.000000 0.000000 0.000000 0.000000 0.000000 0.000000 0.000000 0.000000 0.000000 0.000000 0.000000 0.000000 0.000000 0.000000 0.000000 0.000000 0.000000 0.000000 0.000000 0.000000 0.000000 0.000000 0.000000 0.000000 0.000000 0.000000 0.000000 0.000000 0.000000 0.000000 0.000000 0.000000 0.000000 0.000000 0.000000 0.000000 0.000000 0.000000 0.000000 0.000000 0.000000 0.000000 0.000000 0.000000
</DataArray>
<DataArray type="Float64" Name="Velocity" NumberOfComponents="3" format="ascii">