<VTKFile type="PolyData">
<PolyData>
<Piece NumberOfPoints="1840" NumberOfVerts="1840" NumberOfLines="0" NumberOfStrips="0" NumberOfPolys="0">
<PointData>
<DataArray type="Float64" Name="Pressure" format="ascii">
 0.000000 0.000000 0.000000 0.000000 0.000000 0.000000 0.000000 0.000000 0.000000 0.000000 0.000000 0.000000 0.000000 0.000000 0.000000 0.000000 0.000000 0.000000 0.000000 0.000000 0.000000 0.000000 0.000000 0.000000 0.000000 0.000000 0.000000 0.000000 0.000000 0.000000 0.000000 0.000000 0.000000 0.000000 0.000000 0.000000 0.000000 0.000000 0.000000 0.000000 0.000000 0.000000 0.000000 0.000000 0.000000 0.000000 0.000000 0.000000 0.000000 0.000000 0.000000 0.000000 0.000000 0.000000 0.000000 0.000000 0.000000 0.000000 0.000000 0.000000 0.000000 0.000000 0.000000 0.000000 0.000000 0.000000 0.000000 0.000000 0.000000 0.000000 0.000000 0.000000 0.000000 0.000000 0.000000 0.000000 0.000000 0.000000 0.000000 0.000000 0.000000 0.000000 0.000000 0.000000 0.000000 0.000000 0.000000 0.000000 0.000000 0.000000 0.000000 0.000000 0.000000 0.000000 0.000000 0.000000 0.000000 0.000000 0.000000 0.000000 0.000000 0.000000 0.000000 0.000000 0.000000 0.000000 0.000000 0.000000 0.000000 0.000000 0.000000 0.000000 0.000000 0.000000 0.000000 0.000000 1254.527381 9722.550907 7274.903057 13211.303599 14461.222635 12205.459686 40374.940228 27047.586892 0.000000 0.000000 3707.459730 1108.814615 0.000000 0.000000 0.000000 0.000000 0.000000 0.000000 0.000000 0.000000 0.000000 0.000000 0.000000 0.000000 0.000000 0.000000 0.000000 0.000000 0.000000 0.000000 0.000000 0.000000 0.000000 0.000000 0.000000 0.000000 0.000000 0.000000 0.000000 0.000000 0.000000 0.000000 0.000000 0.000000 0.000000 0.000000 0.000000 0.000000 0.000000 0.000000 0.000000 0.000000 0.000000 0.000000 0.000000 0.000000 0.000000 17249.813994 86722.865248 37542.105886 33936.141622 62279.487642 71249.147407 94550.727437 0.000000 0.000000 0.000000 0.000000 0.000000 0.000000 0.000000 0.000000 0.000000 0.000000 0.000000 0.000000 0.000000 0.000000 0.000000 0.000000 0.000000 0.000000 0.000000 0.000000 0.000000 0.000000 0.000000 0.000000 0.000000 0.000000 0.000000 0.000000 0.000000 0.000000 0.000000 0.000000 0.000000 0.000000 0.000000 0.000000 0.000000 0.000000 0.000000 0.000000 0.000000 0.000000 0.000000 0.000000 0.000000 0.000000 0.000000 0.000000 0.000000 0.000000 24964.441591 151014.108696 144316.288459 20844.385420 39520.109255 134610.249250 42395.805454 90354.140393 20379.654839 54941.180208 7061.163491 0.000000 77159.491080 1244.808571 0.000000 26076.465829 38746.812102 71193.069083 32154.771931 84052.949121 0.000000 11422.081033 25864.340391 70121.226952 7496.891921 0.000000 7980.719426 0.000000 8955.218483 22030.616966 0.000000 79498.403910 9252.486471 14452.515357 64302.110049 0.000000 0.000000 39610.536191 7484.711670 0.000000 0.000000 0.000000 0.000000 0.000000 0.000000 0.000000 17910.517432 106760.014261 71124.977967 124625.965079 129698.537893 7527.575868 35103.738132 65552.556717 127539.580906 30249.033537 72334.695623 97405.823795 117320.232601 71232.325118 64666.490639 71686.771611 48122.102538 17392.053999 54961.030874 48113.340489 36225.975748 49508.959077 56392.241272 0.000000 72037.265354 59211.058728 0.000000 55577.150537 0.000000 0.000000 0.000000 0.000000 0.000000 62770.210576 0.000000 0.000000 47663.650680 1018.589839 0.000000 0.000000 0.000000 0.000000 0.000000 0.000000 0.000000 0.000000 41754.580955 136496.592614 133079.790235 45110.305342 77516.494642 147017.131439 50545.950294 103959.535157 130931.510188 72969.136222 50418.533680 47411.691547 97941.958643 81208.720671 79908.057778 9436.150655 98989.795910 43672.723426 106494.768936 30187.598206 45249.925887 60114.055959 54048.647965 36136.406494 53588.610086 0.000000 19949.074117 71849.889187 129515.077006 19295.098950 28435.855279 26154.297687 42164.370877 0.000000 34610.227145 27718.319989 39724.096819 0.000000 0.000000 0.000000 61633.089842 0.000000 0.000000 0.000000 0.000000 0.000000 28696.615896 104734.957244 20849.751172 48535.103598 153876.382995 5532.545989 116458.281333 40874.556933 100101.563626 61494.171509 27369.306083 146354.573263 81521.957534 64377.017137 147498.218706 46398.618885 34850.253041 53687.859053 84583.230247 105582.316353 11171.745958 91181.006760 0.000000 43952.748994 11551.640502 21534.919968 75159.119197 32192.129611 39443.195283 49534.858208 8712.162437 0.000000 0.000000 13333.866681 47332.286894 0.000000 91583.963724 0.000000 0.000000 25087.834648 0.000000 0.000000 0.000000 0.000000 0.000000 0.000000 13218.587136 58576.962440 86971.965466 98515.286850 45387.895376 97646.210752 73547.895686 37913.512362 129470.560062 9582.006345 147473.422407 56371.382480 70689.303688 195775.366213 69173.846260 77539.138875 73537.679307 60891.040754 61114.287744 4312.911393 46388.831783 91073.044181 43065.197573 64478.453751 32953.988899 44935.078225 110119.992326 45784.240319 55732.501293 34832.883350 113367.000815 74651.470880 0.000000 0.000000 16630.870594 0.000000 11618.386874 52450.089658 54910.921488 0.000000 0.000000 0.000000 0.000000 0.000000 0.000000 0.000000 41270.982770 80849.781439 76030.633294 16016.019114 80169.583873 47344.541337 1953.881492 84865.614727 137341.021461 22319.679821 79880.691343 95066.133113 102320.628647 16031.537903 45023.724137 14543.631482 36031.972266 74130.387200 57337.311649 0.000000 0.000000 12216.590405 28176.426074 32173.105985 28552.412703 154120.067903 25371.257349 82825.550336 57948.649147 11517.161244 0.000000 14328.361881 0.000000 75807.215812 0.000000 0.000000 0.000000 28609.882378 44147.791455 80294.614033 0.000000 0.000000 0.000000 0.000000 0.000000 0.000000 31207.904933 83255.170343 66477.700846 28250.656681 81499.170717 137470.214650 63856.866816 46050.640504 122763.070376 45584.553909 96373.813740 51124.798767 34285.387533 105674.806315 54172.779889 92408.470570 0.000000 97155.391904 52494.214874 68834.927425 0.000000 14856.943321 95721.143865 48812.807032 0.000000 11582.414522 40883.655152 0.000000 57911.577735 41522.804714 2491.583088 0.000000 16282.285055 0.000000 0.000000 0.000000 32191.647191 49159.415938 23003.811189 0.000000 20989.608947 0.000000 0.000000 0.000000 0.000000 0.000000 38020.642040 130646.433050 37067.015132 144407.010851 63631.919412 99058.118259 47399.071519 46987.471694 0.000000 69371.394387 12023.273202 61486.538265 52272.016259 19101.872560 34006.108724 22550.565065 16901.484174 49088.200011 39935.353162 43235.144174 17207.679048 48657.229633 0.000000 80187.536118 67121.065940 0.000000 0.000000 0.000000 61115.111765 0.000000 52397.194263 36874.262140 31624.018253 0.000000 0.000000 7998.735888 17182.341580 0.000000 2749.728565 0.000000 28786.322515 0.000000 0.000000 0.000000 0.000000 0.000000 38822.335813 118363.645408 69876.650709 93072.735036 0.000000 37173.624265 44260.816662 118081.208475 29195.728745 107133.891825 0.000000 0.000000 17451.547933 43901.240261 8271.383561 20817.449906 42608.033797 59321.403797 82616.549446 55543.812643 0.000000 42996.175632 45752.739333 22515.729864 47390.140573 94336.638200 40387.086780 62831.736839 24543.654795 0.000000 36111.075389 83536.166405 0.000000 5360.345303 77788.094305 52909.908176 10720.017710 15067.906303 0.000000 0.000000 0.000000 0.000000 0.000000 0.000000 0.000000 0.000000 27144.650694 129156.295675 40124.835996 102473.336469 176005.795509 13810.869963 101169.456300 152691.562096 51696.990259 11821.574405 43935.427101 42118.955781 0.000000 0.000000 54717.764348 5295.846740 23655.301552 0.000000 56805.300115 6239.951906 22793.266401 24695.339899 0.000000 55506.821430 0.000000 34270.491297 13900.765821 0.000000 83661.029402 0.000000 0.000000 47059.948478 0.000000 9597.646833 2435.867362 34923.334682 28954.356778 0.000000 0.000000 0.000000 0.000000 0.000000 0.000000 0.000000 0.000000 0.000000 12683.966098 81668.572912 219793.983654 89888.578032 217269.205803 0.000000 0.000000 0.000000 0.000000 0.000000 0.000000 0.000000 0.000000 0.000000 0.000000 19852.047550 0.000000 227467.886484 1811.282893 0.000000 0.000000 26788.279652 43345.003607 0.000000 71506.116210 0.000000 46857.069271 40965.652007 36244.967666 48441.057818 32872.552169 0.000000 0.000000 87113.909800 71107.240092 0.000000 23.426335 0.000000 5159.164886 0.000000 34779.428103 0.000000 0.000000 0.000000 0.000000 0.000000 27024.194342 122146.535173 162685.910397 433760.964792 244068.751663 315144.761030 40855.404421 141676.280971 0.000000 37948.620255 241625.574058 19777.007997 77593.938732 0.000000 0.000000 0.000000 0.000000 0.000000 0.000000 0.000000 2717.514989 0.000000 108178.131228 0.000000 41281.333030 37800.597750 0.000000 1983.797871 0.000000 0.000000 14339.711619 0.000000 0.000000 0.000000 23756.206969 0.000000 0.000000 16339.510597 21143.750999 0.000000 68243.973864 0.000000 0.000000 0.000000 0.000000 0.000000 66648.089571 149496.812483 34283.210733 322896.236539 96579.025954 0.000000 0.000000 113705.364866 24305.331333 149125.567452 158296.031273 0.000000 306612.283333 105305.922786 63410.516844 265730.353624 349021.370862 0.000000 0.000000 36070.634123 0.000000 0.000000 660.215650 0.000000 0.000000 0.000000 0.000000 248855.944168 47275.701836 34317.102275 0.000000 0.000000 21462.738920 18907.754546 30581.797644 6006.955890 62441.594825 12437.835143 2174.975869 0.000000 0.000000 0.000000 0.000000 0.000000 0.000000 0.000000 31825.825660 126048.981444 185462.138072 5510.556383 19369.954907 445264.991361 358643.605750 339276.248786 245834.307093 137588.236310 15131.340255 131351.317543 85446.335487 20566.349571 137860.113493 189392.499659 0.000000 575863.922631 416284.461770 238239.492200 0.000000 0.000000 0.000000 0.000000 0.000000 94646.830465 0.000000 0.000000 31058.116619 34123.392308 0.000000 43486.347920 0.000000 64753.564369 78743.321992 48638.298556 49127.013978 49995.808022 0.000000 13741.289203 23129.639495 0.000000 0.000000 0.000000 0.000000 0.000000 29553.313529 143547.927973 243573.276858 103287.910888 324970.592815 0.000000 41912.037376 0.000000 344158.272812 345210.139255 116685.975793 0.000000 258693.485147 111406.179486 381093.238876 365438.710679 46579.927019 175796.831263 185409.832611 77019.253013 0.000000 55643.838169 94535.710408 250212.491729 93005.340690 148920.688071 0.000000 0.000000 0.000000 0.000000 59512.999881 0.000000 0.000000 28155.473529 26270.189881 83818.703393 0.000000 0.000000 6013.956524 0.000000 0.000000 0.000000 0.000000 0.000000 0.000000 0.000000 45717.035941 138700.738926 3564.314931 135083.974699 190514.506018 342154.988112 390882.358938 0.000000 0.000000 0.000000 0.000000 160620.732552 0.000000 0.000000 97346.834918 136250.979665 61301.350917 0.000000 27135.833791 176614.189332 0.000000 133343.131726 0.000000 206254.593684 108778.180467 0.000000 291857.246168 63751.583413 135651.685927 0.000000 0.000000 0.000000 0.000000 0.000000 6305.500277 92188.517442 7104.056011 0.000000 16261.929737 0.000000 122.610594 0.000000 0.000000 0.000000 0.000000 0.000000 46360.857557 77953.724379 0.000000 0.000000 0.000000 31788.106253 0.000000 0.000000 0.000000 0.000000 0.000000 0.000000 0.000000 0.000000 92383.291824 35305.810607 190242.240556 211223.607110 0.000000 14157.884945 48635.129030 0.000000 40486.309163 0.000000 0.000000 43873.352915 0.000000 0.000000 99031.910292 0.000000 65294.247369 368109.918805 0.000000 0.000000 99308.940765 44790.789864 34097.721956 0.000000 41028.779991 0.000000 52642.577318 0.000000 0.000000 0.000000 0.000000 0.000000 63819.877242 158746.206821 0.000000 0.000000 0.000000 0.000000 837274.181326 837274.181326 0.000000 208322.737338 0.000000 63232.005728 0.000000 0.000000 196082.192362 0.000000 0.000000 0.000000 0.000000 4701.034120 0.000000 0.000000 0.000000 0.000000 0.000000 0.000000 0.000000 162690.225054 497513.278572 0.000000 179146.043678 23682.156719 220531.706350 4663.733811 115419.631060 0.000000 110445.000276 0.000000 0.000000 90476.493312 0.000000 0.000000 0.000000 0.000000 0.000000 0.000000 22315.034905 88067.960393 230624.347027 0.000000 0.000000 0.000000 0.000000 0.000000 0.000000 0.000000 39975.858271 0.000000 11397.808957 0.000000 44951.655082 0.000000 410076.257194 0.000000 0.000000 0.000000 0.000000 0.000000 0.000000 0.000000 0.000000 0.000000 0.000000 0.000000 0.000000 0.000000 0.000000 0.000000 64316.012161 57740.595884 223344.257740 0.000000 0.000000 0.000000 0.000000 22513.011470 53500.676110 0.000000 0.000000 0.000000 0.000000 0.000000 33466.777842 115647.325883 0.000000 0.000000 0.000000 0.000000 0.000000 64874.223083 191139.939955 0.000000 0.000000 0.000000 0.000000 0.000000 30406.544838 97782.900825 0.000000 0.000000 0.000000 0.000000 0.000000 48167.118946 141651.530138 0.000000 0.000000 0.000000 0.000000 0.000000 37516.048240 117245.918265 0.000000 0.000000 0.000000 0.000000 0.000000 28295.399572 94178.669545 0.000000 0.000000 0.000000 0.000000 0.000000 34626.102334 110440.461940 0.000000 0.000000 0.000000 0.000000 0.000000 15432.527305 75142.715321 0.000000 0.000000 0.000000 0.000000 0.000000 8077.812529 36013.020008 0.000000 0.000000 0.000000 0.000000 0.000000 27454.872490 68985.636484 0.000000 0.000000 0.000000 0.000000 0.000000 42048.982649 104842.006949 0.000000 0.000000 0.000000 0.000000 0.000000 59536.049236 105003.130241 0.000000 0.000000 0.000000 0.000000 0.000000 33871.020016 49576.782088 0.000000 0.000000 0.000000 0.000000 0.000000 59599.523964 117927.623211 0.000000 0.000000 0.000000 0.000000 0.000000 42165.859638 116915.041304 0.000000 0.000000 0.000000 0.000000 0.000000 8498.599669 40983.592148 0.000000 0.000000 0.000000 0.000000 0.000000 34781.747189 71689.610637 0.000000 0.000000 0.000000 0.000000 0.000000 47838.882697 108808.384268 0.000000 0.000000 0.000000 0.000000 0.000000 27705.669783 34496.901762 0.000000 0.000000 0.000000 0.000000 0.000000 53054.415346 115510.892695 0.000000 0.000000 0.000000 0.000000 0.000000 18302.903958 48964.968851 0.000000 0.000000 0.000000 0.000000 0.000000 3878.578410 20520.565459 0.000000 0.000000 0.000000 0.000000 0.000000 21485.498403 69254.584841 0.000000 0.000000 0.000000 0.000000 0.000000 35132.133939 76608.836589 0.000000 0.000000 0.000000 0.000000 0.000000 28747.938619 19550.176271 0.000000 0.000000 0.000000 0.000000 0.000000 55107.677763 73870.119523 0.000000 0.000000 0.000000 0.000000 0.000000 16062.123759 21877.105281 0.000000 0.000000 0.000000 0.000000 0.000000 12490.092376 50047.174049 0.000000 0.000000 0.000000 0.000000 0.000000 35547.038261 99319.564692 0.000000 0.000000 0.000000 0.000000 0.000000 27819.048707 81801.419620 0.000000 0.000000 0.000000 0.000000 0.000000 35705.696998 140244.609990 0.000000 0.000000 0.000000 0.000000 0.000000 25293.456719 73091.558341 0.000000 0.000000 0.000000 0.000000 0.000000 30204.134904 93251.005359 0.000000 0.000000 0.000000 0.000000 0.000000 11945.438981 15218.309862 0.000000 0.000000 0.000000 0.000000 0.000000 37212.923970 38297.347406 0.000000 0.000000 0.000000 0.000000 0.000000 43085.727858 87202.340676 0.000000 0.000000 0.000000 0.000000 0.000000 18857.031777 77823.651408 0.000000 0.000000 0.000000 0.000000 0.000000 11714.727163 60989.665429 0.000000 0.000000 0.000000 0.000000 0.000000 26918.789834 59037.696678 0.000000 0.000000 0.000000 0.000000 0.000000 51197.148307 111714.524631 0.000000 0.000000 0.000000 0.000000 0.000000 20706.619191 50157.964617 0.000000 0.000000 0.000000 0.000000 0.000000 25740.587389 82397.122268 0.000000 0.000000 0.000000 0.000000 0.000000 15441.197646 36474.207505 0.000000 0.000000 0.000000 0.000000 0.000000 41053.888980 53055.880016 0.000000 0.000000 0.000000 0.000000 0.000000 38073.404722 33291.125652 0.000000 0.000000 0.000000 0.000000 0.000000 39427.012763 56889.397095 0.000000 0.000000 0.000000 0.000000 0.000000 56192.971531 97340.469363 0.000000 0.000000 0.000000 0.000000 0.000000 14760.133711 45133.268870 0.000000 0.000000 0.000000 0.000000 0.000000 25891.362742 89491.939865 0.000000 0.000000 0.000000 0.000000 0.000000 60476.877770 155116.434328 0.000000 0.000000 0.000000 0.000000 0.000000 49029.296243 151949.842821 0.000000 0.000000 0.000000 0.000000 0.000000 54979.490252 126704.273311 0.000000 0.000000 0.000000 0.000000 0.000000 18510.610986 51006.835724 0.000000 0.000000 0.000000 0.000000 0.000000 43683.031449 167514.907476 0.000000 0.000000 0.000000 0.000000 0.000000 60992.840263 111829.629409 0.000000 0.000000 0.000000 0.000000 0.000000 18470.888290 2739.216369 0.000000 0.000000 0.000000 0.000000 0.000000 12961.693763 0.000000 0.000000 0.000000 0.000000 0.000000 0.000000 1309.631275 0.000000 0.000000 0.000000 0.000000 0.000000 0.000000 776.225698 0.000000 0.000000 0.000000 0.000000 0.000000 0.000000 22756.387073 0.000000 0.000000 0.000000 0.000000 0.000000 0.000000 48037.780537 69219.827494 0.000000 0.000000 0.000000 0.000000 0.000000 28147.819923 138675.464926 0.000000 0.000000 0.000000 0.000000 0.000000 21865.441227 89467.133101 0.000000 0.000000 0.000000 0.000000 0.000000 630.283788 0.000000 0.000000 0.000000 0.000000 0.000000 0.000000 3211.330350 20109.033304 0.000000 0.000000 0.000000 0.000000 0.000000 10834.664651 79870.996396 0.000000 0.000000 0.000000 0.000000 0.000000 2551.433005 0.000000 0.000000 0.000000 0.000000 0.000000 0.000000 3581.724484 1698.604419 0.000000 0.000000 0.000000 0.000000 0.000000 15692.324693 47309.104636 0.000000 0.000000 0.000000 0.000000 0.000000 29323.976056 150574.579219 0.000000 0.000000 0.000000 0.000000 0.000000 5298.932751 0.000000 0.000000 0.000000 0.000000 0.000000 0.000000 167.151607 0.000000 0.000000 0.000000 0.000000 0.000000 0.000000 5952.365316 11057.817959 0.000000 0.000000 0.000000 0.000000 0.000000 30738.043008 166290.995274 0.000000 0.000000 0.000000 0.000000 0.000000 72945.952289 379796.729128 0.000000 0.000000 0.000000 0.000000 0.000000 88968.720340 647656.434094 0.000000 0.000000 0.000000 0.000000 0.000000 66832.818567 244021.995153 0.000000 0.000000 0.000000 0.000000 0.000000 77282.844663 167455.481321 0.000000 0.000000 0.000000 0.000000 0.000000 57901.441138 311510.320908 0.000000 0.000000 0.000000 0.000000 0.000000 40663.688397 479777.010773 0.000000 0.000000 0.000000 0.000000 0.000000 45494.436254 656892.543122 0.000000 0.000000 0.000000 0.000000 0.000000 13613.571370 125503.131276 102588.561225 34533.743982 56620.846459 48904.588132 73304.606353 20273.827529 17421.211219 53613.912503 26277.318729 28580.611842 9860.587001 0.000000 1516.229768 0.000000 0.000000 29095.155088 0.000000 0.000000 0.000000 0.000000 0.000000 0.000000 0.000000 0.000000 0.000000 0.000000 0.000000 0.000000 0.000000 0.000000 0.000000 0.000000 0.000000 0.000000 0.000000 0.000000 0.000000 0.000000 0.000000 0.000000 0.000000 0.000000 0.000000 0.000000 0.000000 0.000000 0.000000 0.000000 0.000000 0.000000 0.000000 0.000000 0.000000 0.000000 0.000000 0.000000 0.000000 0.000000 0.000000 0.000000 0.000000 0.000000 0.000000 0.000000 0.000000 0.000000 0.000000 0.000000 0.000000 0.000000 0.000000 0.000000 0.000000 0.000000 0.000000 0.000000 0.000000 0.000000 0.000000 0.000000 0.000000 0.000000 0.000000 0.000000 0.000000 0.000000 0.000000 0.000000 0.000000 0.000000 0.000000 0.000000 0.000000 0.000000 0.000000 0.000000 0.000000 0.000000 0.000000 0.000000 0.000000 0.000000 0.000000 0.000000 0.000000 0.000000 0.000000 0.000000 0.000000 0.000000 0.000000 0.000000 0.000000 0.000000 0.000000 0.000000 0.000000 0.000000 0.000000 0.000000 0.000000 0.000000 0.000000 0.000000 0.000000 0.000000 0.000000 0.000000 0.000000 0.000000 0.000000 0.000000 0.000000 0.000000 0.000000 0.000000 0.000000 0.000000 0.000000 0.000000 0.000000 0.000000 0.000000 0.000000 0.000000 0.000000 0.000000 0.000000 0.000000 0.000000 0.000000 0.000000 0.000000 0.000000 0.000000 0.000000 0.000000 0.000000 0.000000 0.000000 0.000000 0.000000 0.000000 0.000000 0.000000 0.000000 0.000000
</DataArray>
<DataArray type="Float64" Name="Velocity" NumberOfComponents="3" format="ascii">