<VTKFile type="PolyData">
<PolyData>
<Piece NumberOfPoints="1840" NumberOfVerts="1840" NumberOfLines="0" NumberOfStrips="0" NumberOfPolys="0">
<PointData>
<DataArray type="Float64" Name="Pressure" format="ascii">
 0.000000 0.000000 0.000000 0.000000 0.000000 0.000000 0.000000 0.000000 0.000000 0.000000 0.000000 0.000000 0.000000 0.000000 0.000000 0.000000 0.000000 0.000000 0.000000 0.000000 0.000000 0.000000 0.000000 0.000000 0.000000 0.000000 0.000000 0.000000 0.000000 0.000000 0.000000 0.000000 0.000000 0.000000 0.000000 0.000000 0.000000 0.000000 0.000000 0.000000 0.000000 0.000000 0.000000 0.000000 0.000000 0.000000 0.000000 0.000000 0.000000 0.000000 0.000000 0.000000 0.000000 0.000000 0.000000 0.000000 0.000000 0.000000 0.000000 0.000000 0.000000 0.000000 0.000000 0.000000 0.000000 0.000000 0.000000 0.000000 0.000000 0.000000 0.000000 0.000000 0.000000 0.000000 0.000000 0.000000 0.000000 0.000000 0.000000 0.000000 0.000000 0.000000 0.000000 0.000000 0.000000 0.000000 0.000000 0.000000 0.000000 0.000000 0.000000 0.000000 0.000000 0.000000 0.000000 0.000000 0.000000 0.000000 0.000000 0.000000 0.000000 0.000000 0.000000 0.000000 0.000000 0.000000 0.000000 0.000000 0.000000 0.000000 0.000000 0.000000 0.000000 0.000000 0.000000 0.000000 692.595443 15869.099682 43076.399877 24619.678873 0.000000 0.000000 0.000000 0.000000 7621.874912 20441.657023 4830.805000 3445.605668 0.000000 0.000000 0.000000 0.000000 0.000000 0.000000 0.000000 0.000000 0.000000 0.000000 0.000000 0.000000 0.000000 0.000000 0.000000 0.000000 0.000000 5907.272669 2220.214107 0.000000 0.000000 0.000000 0.000000 0.000000 0.000000 0.000000 0.000000 0.000000 0.000000 0.000000 0.000000 0.000000 0.000000 0.000000 0.000000 0.000000 0.000000 0.000000 0.000000 0.000000 0.000000 0.000000 0.000000 0.000000 0.000000 17912.381269 160613.169480 317109.540753 74536.421950 0.000000 0.000000 0.000000 0.000000 0.000000 28345.147475 0.000000 0.000000 0.000000 0.000000 0.000000 0.000000 0.000000 0.000000 0.000000 0.000000 0.000000 0.000000 0.000000 0.000000 0.000000 0.000000 0.000000 0.000000 0.000000 0.000000 0.000000 0.000000 0.000000 0.000000 0.000000 0.000000 0.000000 0.000000 0.000000 0.000000 0.000000 0.000000 0.000000 0.000000 0.000000 0.000000 0.000000 0.000000 0.000000 0.000000 0.000000 0.000000 0.000000 0.000000 0.000000 0.000000 0.000000 33680.397287 150335.717669 0.000000 0.000000 0.000000 43207.594273 0.000000 0.000000 0.000000 25601.939950 41275.582668 133013.301517 81325.370589 0.000000 0.000000 0.000000 29489.984698 0.000000 0.000000 28333.153787 44967.869640 2741.711249 0.000000 0.000000 0.000000 0.000000 0.000000 0.000000 58807.411224 0.000000 0.000000 0.000000 51548.031639 0.000000 0.000000 28556.906627 0.000000 0.000000 0.000000 0.000000 0.000000 0.000000 0.000000 0.000000 0.000000 0.000000 41764.884108 104682.749179 47846.736993 0.000000 0.000000 104572.093135 0.000000 58650.090386 0.000000 0.000000 0.000000 0.000000 0.000000 0.000000 122587.217076 0.000000 0.000000 0.000000 0.000000 0.000000 5047.562314 130042.962671 0.000000 135581.790976 0.000000 0.000000 0.000000 0.000000 0.000000 185304.348063 0.000000 132876.323600 0.000000 0.000000 0.000000 32770.666808 0.000000 0.000000 0.000000 0.000000 28645.476706 0.000000 0.000000 0.000000 0.000000 0.000000 39396.711946 118089.381245 160012.869350 0.000000 0.000000 166404.253066 0.000000 0.000000 0.000000 192166.484838 0.000000 0.000000 0.000000 0.000000 120805.480268 0.000000 151100.392863 0.000000 81070.319614 377747.260392 127475.374924 34581.173334 2364.455292 0.000000 98945.949839 0.000000 27424.463119 0.000000 218361.926402 267267.857363 0.000000 0.000000 15908.849454 100197.664994 0.000000 0.000000 0.000000 0.000000 21877.858046 0.000000 0.000000 0.000000 0.000000 0.000000 0.000000 0.000000 8109.806535 12930.021769 0.000000 24248.314067 0.000000 0.000000 0.000000 0.000000 0.000000 94344.419040 16767.870343 58388.046999 94045.309751 2931.872689 0.000000 0.000000 0.000000 56155.793466 0.000000 0.000000 4151.835383 0.000000 0.000000 0.000000 0.000000 0.000000 0.000000 148898.091150 0.000000 0.000000 197433.816716 0.000000 63787.127997 90550.335558 75146.774038 0.000000 0.000000 0.000000 0.000000 301076.742388 0.000000 0.000000 0.000000 0.000000 0.000000 0.000000 3884.243779 18087.748403 21658.884173 0.000000 0.000000 0.000000 0.000000 0.000000 0.000000 0.000000 0.000000 0.000000 0.000000 0.000000 0.000000 118306.246817 29292.169777 17097.025691 144518.790582 13310.980918 49732.745433 64680.221751 0.000000 0.000000 0.000000 0.000000 0.000000 0.000000 0.000000 0.000000 0.000000 0.000000 15394.925833 0.000000 0.000000 80241.534906 0.000000 5926.805843 19345.971682 0.000000 0.000000 0.000000 0.000000 0.000000 0.000000 0.000000 3888.413977 0.000000 74025.211758 0.000000 66757.101834 0.000000 0.000000 0.000000 0.000000 0.000000 0.000000 108821.799830 0.000000 67901.696261 0.000000 42070.527123 0.000000 0.000000 16229.180199 0.000000 0.000000 190313.221441 0.000000 42599.985383 0.000000 0.000000 126946.012073 0.000000 0.000000 0.000000 0.000000 187790.305979 0.000000 50504.695402 0.000000 26886.464806 0.000000 0.000000 0.000000 0.000000 2654.618899 0.000000 0.000000 0.000000 0.000000 0.000000 21292.038885 18720.852896 18408.251676 0.000000 0.000000 0.000000 0.000000 43026.345789 299737.303458 0.000000 149564.274630 0.000000 55223.260142 29810.710513 124453.669124 0.000000 0.000000 10583.515837 8847.788597 0.000000 22302.640006 0.000000 15858.624925 0.000000 116081.331652 12593.545077 0.000000 29249.085083 0.000000 112002.558477 28057.766193 0.000000 0.000000 0.000000 7034.942206 0.000000 0.000000 0.000000 36123.019704 21137.279304 0.000000 0.000000 0.000000 0.000000 0.000000 0.000000 12146.622649 20716.830093 157435.963158 0.000000 34965.516017 0.000000 0.000000 0.000000 102054.117804 0.000000 0.000000 0.000000 0.000000 71590.421515 38049.004094 92968.059299 0.000000 0.000000 2446.740114 77919.329537 0.000000 0.000000 138889.416201 117103.415061 0.000000 0.000000 71363.235387 55019.878302 0.000000 113685.957656 0.000000 20862.183684 93341.208950 360881.198935 0.000000 90178.547736 0.000000 77120.727943 0.000000 0.000000 29324.827082 0.000000 0.000000 0.000000 0.000000 0.000000 4154.541438 14326.249314 123804.400442 0.000000 263074.441293 8029.260071 0.000000 114649.845399 0.000000 165772.956862 0.000000 0.000000 37166.126180 0.000000 0.000000 0.000000 0.000000 213738.601675 0.000000 239460.947072 0.000000 0.000000 0.000000 0.000000 0.000000 0.000000 0.000000 55902.819465 0.000000 0.000000 100233.976424 0.000000 0.000000 0.000000 0.000000 56018.301338 0.000000 0.000000 192988.876885 0.000000 0.000000 0.000000 0.000000 0.000000 0.000000 0.000000 4936.766766 15955.713278 227403.325887 0.000000 0.000000 0.000000 0.000000 0.000000 0.000000 0.000000 0.000000 0.000000 0.000000 0.000000 75379.714138 249611.646329 0.000000 441431.516292 0.000000 0.000000 69753.651397 0.000000 22857.793934 0.000000 0.000000 0.000000 0.000000 0.000000 0.000000 0.000000 0.000000 0.000000 0.000000 0.000000 0.000000 0.000000 0.000000 0.000000 8342.393340 0.000000 0.000000 0.000000 0.000000 0.000000 0.000000 0.000000 0.000000 0.000000 23007.060726 0.000000 0.000000 6800.881984 0.000000 0.000000 0.000000 0.000000 0.000000 0.000000 36966.059719 0.000000 21199.641401 0.000000 86114.009127 271409.106251 0.000000 337026.119888 39467.905988 0.000000 0.000000 172030.089984 0.000000 0.000000 0.000000 0.000000 85742.796667 0.000000 479751.334882 0.000000 10369.258793 0.000000 147153.935628 0.000000 0.000000 0.000000 0.000000 0.000000 796854.149655 0.000000 0.000000 0.000000 0.000000 0.000000 0.000000 0.000000 0.000000 135848.632248 115872.918445 113546.804239 198427.144410 98881.520314 0.000000 0.000000 0.000000 0.000000 11194.037886 179766.979598 0.000000 373266.836870 70177.238426 0.000000 0.000000 0.000000 0.000000 0.000000 0.000000 0.000000 0.000000 108316.469900 0.000000 0.000000 0.000000 156752.401165 193687.953091 30851.060256 0.000000 0.000000 4790.004632 0.000000 0.000000 61257.345224 59833.259560 0.000000 0.000000 0.000000 0.000000 0.000000 0.000000 0.000000 3764.262580 4221.451375 59740.048126 0.000000 0.000000 0.000000 0.000000 0.000000 9020.844849 0.000000 11193.177297 0.000000 0.000000 0.000000 0.000000 36038.038046 19961.242379 0.000000 80175.269840 82482.038332 0.000000 0.000000 18562.291966 167563.508224 0.000000 0.000000 0.000000 0.000000 0.000000 0.000000 0.000000 342060.265126 50272.822578 0.000000 0.000000 0.000000 0.000000 311337.908232 0.000000 0.000000 0.000000 0.000000 0.000000 0.000000 0.000000 0.000000 19888.768636 144031.862482 136896.384550 0.000000 112960.182588 0.000000 0.000000 0.000000 95007.885629 0.000000 44469.257823 64794.388285 21423.419925 0.000000 0.000000 0.000000 0.000000 0.000000 6008.415604 116956.846532 0.000000 2445.342644 0.000000 0.000000 0.000000 0.000000 9998.397333 3055.622012 0.000000 0.000000 0.000000 0.000000 0.000000 0.000000 0.000000 15724.397539 2028.287934 0.000000 26337.980632 0.000000 20605.813720 0.000000 0.000000 0.000000 0.000000 0.000000 9427.539938 50438.433211 164355.888206 0.000000 0.000000 53139.996927 124107.851376 0.000000 50617.396791 0.000000 56672.246162 0.000000 0.000000 0.000000 62779.784654 0.000000 0.000000 0.000000 0.000000 0.000000 73345.880699 195439.843753 2854.378044 428455.622811 0.000000 0.000000 93902.522602 75089.165277 33807.624929 0.000000 0.000000 83831.204577 0.000000 0.000000 0.000000 0.000000 68860.798999 23628.487005 0.000000 0.000000 0.000000 0.000000 0.000000 0.000000 0.000000 0.000000 5573.665453 0.000000 0.000000 0.000000 58484.993086 0.000000 0.000000 0.000000 0.000000 0.000000 0.000000 7462.831312 0.000000 0.000000 0.000000 0.000000 69935.966128 31858.918384 34932.773115 0.000000 0.000000 0.000000 0.000000 0.000000 0.000000 0.000000 0.000000 0.000000 0.000000 0.000000 0.000000 337390.672656 0.000000 57308.054270 0.000000 71387.513473 10204.124033 0.000000 0.000000 10255.911851 164189.450794 0.000000 0.000000 0.000000 0.000000 0.000000 0.000000 0.000000 0.000000 0.000000 0.000000 0.000000 0.000000 294592.020384 0.000000 0.000000 0.000000 0.000000 0.000000 0.000000 3817.399321 3745.551327 0.000000 0.000000 0.000000 0.000000 32573.125206 0.000000 0.000000 0.000000 0.000000 158744.074148 0.000000 0.000000 15590.024511 0.000000 0.000000 0.000000 0.000000 0.000000 0.000000 0.000000 0.000000 0.000000 40501.624268 0.000000 106532.216623 0.000000 0.000000 0.000000 0.000000 0.000000 6178.446030 0.000000 10446.467283 0.000000 0.000000 0.000000 39837.031367 39837.031367 0.000000 0.000000 0.000000 0.000000 0.000000 0.000000 0.000000 10099.870940 0.000000 57119.793369 0.000000 0.000000 0.000000 38764.942751 104740.505281 140450.294474 0.000000 171150.594476 0.000000 27472.199948 170444.574930 0.000000 98537.568160 10051.809367 0.000000 0.000000 139012.951404 15969.695833 0.000000 0.000000 76606.490620 0.000000 0.000000 0.000000 0.000000 0.000000 0.000000 0.000000 25346.255307 42287.178041 169198.367945 44168.937917 1378.159559 0.000000 0.000000 0.000000 290431.094664 0.000000 0.000000 16801.693387 42689.793297 0.000000 116900.478795 0.000000 0.000000 0.000000 0.000000 0.000000 210595.536035 121901.625641 0.000000 0.000000 0.000000 0.000000 0.000000 33222.967653 0.000000 161454.742604 0.000000 37970.651857 74625.571760 8409.029254 0.000000 0.000000 97622.595771 0.000000 0.000000 0.000000 385644.603473 0.000000 0.000000 0.000000 0.000000 0.000000 7107.075078 0.000000 0.000000 0.000000 0.000000 0.000000 0.000000 0.000000 0.000000 0.000000 0.000000 0.000000 0.000000 0.000000 14417.195202 56358.650821 0.000000 0.000000 0.000000 0.000000 0.000000 20829.005709 79876.131157 0.000000 0.000000 0.000000 0.000000 0.000000 26372.038635 43938.019398 0.000000 0.000000 0.000000 0.000000 0.000000 53485.880176 207521.235200 0.000000 0.000000 0.000000 0.000000 0.000000 52997.810828 163722.905844 0.000000 0.000000 0.000000 0.000000 0.000000 46175.595101 133053.004444 0.000000 0.000000 0.000000 0.000000 0.000000 26494.097385 99985.151731 0.000000 0.000000 0.000000 0.000000 0.000000 15978.638668 114649.415877 0.000000 0.000000 0.000000 0.000000 0.000000 7850.597514 48353.862058 0.000000 0.000000 0.000000 0.000000 0.000000 17296.657778 47320.852039 0.000000 0.000000 0.000000 0.000000 0.000000 66484.637657 272544.058286 0.000000 0.000000 0.000000 0.000000 0.000000 73056.628540 235533.091056 0.000000 0.000000 0.000000 0.000000 0.000000 70385.428341 212762.620392 0.000000 0.000000 0.000000 0.000000 0.000000 26627.048792 41930.913566 0.000000 0.000000 0.000000 0.000000 0.000000 48980.889694 106259.851215 0.000000 0.000000 0.000000 0.000000 0.000000 131548.746029 508081.061825 0.000000 0.000000 0.000000 0.000000 0.000000 80056.479454 238565.994425 0.000000 0.000000 0.000000 0.000000 0.000000 18898.305901 23527.344753 0.000000 0.000000 0.000000 0.000000 0.000000 8013.960111 50994.397772 0.000000 0.000000 0.000000 0.000000 0.000000 5934.061485 45083.839580 0.000000 0.000000 0.000000 0.000000 0.000000 7170.560281 61436.911605 0.000000 0.000000 0.000000 0.000000 0.000000 17524.631874 79004.013414 0.000000 0.000000 0.000000 0.000000 0.000000 50891.349060 203348.855712 0.000000 0.000000 0.000000 0.000000 0.000000 45342.572688 307548.825224 0.000000 0.000000 0.000000 0.000000 0.000000 87012.506400 435112.126493 0.000000 0.000000 0.000000 0.000000 0.000000 45785.618440 83845.129787 0.000000 0.000000 0.000000 0.000000 0.000000 7695.456394 10283.449415 0.000000 0.000000 0.000000 0.000000 0.000000 35655.360354 213976.454002 0.000000 0.000000 0.000000 0.000000 0.000000 42293.275011 350619.664556 0.000000 0.000000 0.000000 0.000000 0.000000 25869.955703 235438.996901 0.000000 0.000000 0.000000 0.000000 0.000000 23477.471785 133282.390435 0.000000 0.000000 0.000000 0.000000 0.000000 9988.921915 2494.219369 0.000000 0.000000 0.000000 0.000000 0.000000 50675.938754 186981.082889 0.000000 0.000000 0.000000 0.000000 0.000000 33895.485249 172349.938610 0.000000 0.000000 0.000000 0.000000 0.000000 25955.580735 137558.464540 0.000000 0.000000 0.000000 0.000000 0.000000 69698.403319 269984.819615 0.000000 0.000000 0.000000 0.000000 0.000000 28020.457025 52661.909009 0.000000 0.000000 0.000000 0.000000 0.000000 0.000000 0.000000 0.000000 0.000000 0.000000 0.000000 0.000000 8509.415158 56344.580733 0.000000 0.000000 0.000000 0.000000 0.000000 39998.145697 333337.242375 0.000000 0.000000 0.000000 0.000000 0.000000 26291.812233 107612.510407 0.000000 0.000000 0.000000 0.000000 0.000000 6337.083189 52054.104655 0.000000 0.000000 0.000000 0.000000 0.000000 20330.202957 229899.133145 0.000000 0.000000 0.000000 0.000000 0.000000 14793.807705 74420.332622 0.000000 0.000000 0.000000 0.000000 0.000000 2853.638950 4703.099837 0.000000 0.000000 0.000000 0.000000 0.000000 16284.438875 31907.460263 0.000000 0.000000 0.000000 0.000000 0.000000 36597.916538 118368.206923 0.000000 0.000000 0.000000 0.000000 0.000000 29582.167146 115204.671445 0.000000 0.000000 0.000000 0.000000 0.000000 32191.445549 53867.567838 0.000000 0.000000 0.000000 0.000000 0.000000 46938.381532 93047.774537 0.000000 0.000000 0.000000 0.000000 0.000000 29293.579013 72367.385499 0.000000 0.000000 0.000000 0.000000 0.000000 39680.549249 80368.758271 0.000000 0.000000 0.000000 0.000000 0.000000 26591.055683 37384.819507 0.000000 0.000000 0.000000 0.000000 0.000000 3536.264904 0.000000 0.000000 0.000000 0.000000 0.000000 0.000000 12711.121216 0.000000 0.000000 0.000000 0.000000 0.000000 0.000000 39338.358684 54274.705100 0.000000 0.000000 0.000000 0.000000 0.000000 16110.708098 22485.841065 0.000000 0.000000 0.000000 0.000000 0.000000 11029.880172 75568.240196 0.000000 0.000000 0.000000 0.000000 0.000000 11101.449280 66470.236659 0.000000 0.000000 0.000000 0.000000 0.000000 19178.062588 81957.440610 0.000000 0.000000 0.000000 0.000000 0.000000 7954.162963 55954.913436 0.000000 0.000000 0.000000 0.000000 0.000000 3911.622904 41409.027374 0.000000 0.000000 0.000000 0.000000 0.000000 27240.417732 25306.170837 0.000000 0.000000 0.000000 0.000000 0.000000 67422.944871 122696.216747 0.000000 0.000000 0.000000 0.000000 0.000000 42669.802002 124292.871634 0.000000 0.000000 0.000000 0.000000 0.000000 26524.996196 117212.118638 0.000000 0.000000 0.000000 0.000000 0.000000 14177.116681 79949.330912 0.000000 0.000000 0.000000 0.000000 0.000000 2017.032392 12516.451614 0.000000 0.000000 0.000000 0.000000 0.000000 22128.598756 114108.769772 0.000000 0.000000 0.000000 0.000000 0.000000 49199.332807 211431.756399 0.000000 0.000000 0.000000 0.000000 0.000000 43128.332673 92140.252369 0.000000 0.000000 0.000000 0.000000 0.000000 71758.408137 103750.624351 0.000000 0.000000 0.000000 0.000000 0.000000 101125.829878 518115.343383 0.000000 0.000000 0.000000 0.000000 0.000000 88514.297847 605044.031874 0.000000 0.000000 0.000000 0.000000 0.000000 21705.914703 163642.657179 0.000000 0.000000 0.000000 0.000000 0.000000 23316.844496 123999.012837 0.000000 0.000000 0.000000 0.000000 0.000000 9766.299642 28784.119618 0.000000 0.000000 0.000000 0.000000 0.000000 4623.275139 27454.893268 0.000000 0.000000 0.000000 0.000000 0.000000 2244.800356 25615.107940 0.000000 0.000000 0.000000 0.000000 0.000000 184.164924 5981.080179 14056.228898 0.000000 0.000000 0.000000 9274.085347 0.000000 0.000000 0.000000 0.000000 0.000000 0.000000 0.000000 0.000000 0.000000 0.000000 0.000000 0.000000 0.000000 0.000000 0.000000 0.000000 0.000000 0.000000 0.000000 0.000000 0.000000 0.000000 0.000000 0.000000 0.000000 0.000000 0.000000 0.000000 0.000000 0.000000 0.000000 0.000000 0.000000 0.000000 0.000000 0.000000 0.000000 0.000000 0.000000 0.000000 0.000000 0.000000 0.000000 0.000000 0.000000 0.000000 0.000000 0.000000 0.000000 0.000000 0.000000 0.000000 0.000000 0.000000 0.000000 0.000000 0.000000 0.000000 0.000000 0.000000 0.000000 0.000000 0.000000 0.000000 0.000000 0.000000 0.000000 0.000000 0.000000 0.000000 0.000000 0.000000 0.000000 0.000000 0.000000 0.000000 0.000000 0.000000 0.000000 0.000000 0.000000 0.000000 0.000000 0.000000 0.000000 0.000000 0.000000 0.000000 0.000000 0.000000 0.000000 0.000000 0.000000 0.000000 0.000000 0.000000 0.000000 0.000000 0.000000 0.000000 0.000000 0.000000 0.000000 0.000000 0.000000 0.000000 0.000000 0.000000 0.000000 0.000000 0.000000 0.000000 0.000000 0.000000 0.000000 0.000000 0.000000 0.000000 0.000000 0.000000 0.000000 0.000000 0.000000 0.000000 0.000000 0.000000 0.000000 0.000000 0.000000 0.000000 0.000000 0.000000 0.000000 0.000000 0.000000 0.000000 0.000000 0.000000 0.000000 0.000000 0.000000 0.000000 0.000000 0.000000 0.000000 0.000000 0.000000 0.000000 0.000000 0.000000 0.000000 0.000000 0.000000 0.000000 0.000000 0.000000 0.000000 0.000000 0.000000 0.000000 0.000000 0.000000
</DataArray>
<DataArray type="Float64" Name="Velocity" NumberOfComponents="3" format="ascii">