<VTKFile type="PolyData">
<PolyData>
<Piece NumberOfPoints="1840" NumberOfVerts="1840" NumberOfLines="0" NumberOfStrips="0" NumberOfPolys="0">
<PointData>
<DataArray type="Float64" Name="Pressure" format="ascii">
 0.000000 0.000000 0.000000 0.000000 0.000000 0.000000 0.000000 0.000000 0.000000 0.000000 0.000000 0.000000 0.000000 0.000000 0.000000 0.000000 0.000000 0.000000 0.000000 0.000000 0.000000 0.000000 0.000000 0.000000 0.000000 0.000000 0.000000 0.000000 0.000000 0.000000 0.000000 0.000000 0.000000 0.000000 0.000000 0.000000 0.000000 0.000000 0.000000 0.000000 0.000000 0.000000 0.000000 0.000000 0.000000 0.000000 0.000000 0.000000 0.000000 0.000000 0.000000 0.000000 0.000000 0.000000 0.000000 0.000000 0.000000 0.000000 0.000000 0.000000 0.000000 0.000000 0.000000 0.000000 0.000000 0.000000 0.000000 0.000000 0.000000 0.000000 0.000000 0.000000 0.000000 0.000000 0.000000 0.000000 0.000000 0.000000 0.000000 0.000000 0.000000 0.000000 0.000000 0.000000 0.000000 0.000000 0.000000 0.000000 0.000000 0.000000 0.000000 0.000000 0.000000 0.000000 0.000000 0.000000 0.000000 0.000000 0.000000 0.000000 0.000000 0.000000 0.000000 0.000000 0.000000 0.000000 0.000000 0.000000 0.000000 0.000000 0.000000 0.000000 0.000000 0.000000 0.000000 0.000000 0.000000 609.840979 965.351135 15.586029 5409.904981 10870.984847 0.000000 0.000000 0.000000 0.000000 0.000000 0.000000 6411.821918 1488.569317 0.000000 0.000000 0.000000 0.000000 0.000000 0.000000 0.000000 0.000000 0.000000 0.000000 0.000000 0.000000 0.000000 0.000000 0.000000 0.000000 0.000000 0.000000 0.000000 0.000000 0.000000 0.000000 0.000000 0.000000 0.000000 0.000000 0.000000 0.000000 0.000000 0.000000 0.000000 0.000000 0.000000 0.000000 0.000000 0.000000 0.000000 0.000000 0.000000 0.000000 0.000000 0.000000 0.000000 1540.521014 11027.638435 7880.737510 0.000000 0.000000 1825.809480 0.000000 0.000000 0.000000 0.000000 0.000000 0.000000 0.000000 0.000000 0.000000 0.000000 0.000000 0.000000 0.000000 0.000000 0.000000 0.000000 0.000000 0.000000 0.000000 0.000000 0.000000 0.000000 0.000000 0.000000 0.000000 0.000000 0.000000 0.000000 0.000000 0.000000 0.000000 0.000000 0.000000 0.000000 0.000000 0.000000 0.000000 0.000000 0.000000 0.000000 0.000000 0.000000 0.000000 0.000000 0.000000 0.000000 0.000000 0.000000 0.000000 0.000000 0.000000 6401.950349 29285.520082 8493.443454 26197.116073 17511.729345 0.000000 0.000000 0.000000 0.000000 28381.634570 111279.247550 0.000000 0.000000 44326.407635 30280.190639 16178.903229 0.000000 0.000000 29851.458585 20828.212361 24879.339401 0.000000 0.000000 39051.737149 13373.743336 59039.812635 0.000000 116856.064210 0.000000 51421.435949 0.000000 0.000000 105819.147714 68914.060681 0.000000 0.000000 8829.679401 4829.259754 0.000000 0.000000 0.000000 0.000000 0.000000 0.000000 0.000000 0.000000 13118.480671 44679.960474 0.000000 51857.714584 62943.390264 0.000000 0.000000 8562.831195 0.000000 0.000000 0.000000 0.000000 4847.670697 0.000000 0.000000 400.392401 26495.189479 71157.540796 33740.644546 4683.714383 331175.398307 0.000000 863.679854 0.000000 11717.776363 0.000000 62244.171845 12023.471293 0.000000 0.000000 0.000000 0.000000 54877.275730 63430.711047 116030.196893 0.000000 0.000000 0.000000 0.000000 0.000000 21551.479366 0.000000 0.000000 0.000000 0.000000 0.000000 12505.423466 36043.063108 0.000000 0.000000 71242.498623 0.000000 52868.724144 0.000000 0.000000 0.000000 0.000000 0.000000 0.000000 0.000000 9167.842314 0.000000 0.000000 23161.984795 0.000000 156733.004179 0.000000 0.000000 0.000000 0.000000 45574.844738 140946.968836 0.000000 56277.436012 48776.064740 80653.193164 0.000000 0.000000 0.000000 144682.569028 46021.914758 0.000000 33707.159285 80977.914481 0.000000 0.000000 0.000000 0.000000 0.000000 0.000000 0.000000 0.000000 17809.775069 63498.421909 0.000000 0.000000 179979.246922 0.000000 0.000000 198006.490343 0.000000 0.000000 0.000000 0.000000 0.000000 0.000000 0.000000 0.000000 0.000000 0.000000 114900.395794 0.000000 0.000000 0.000000 180239.903381 136624.607193 0.000000 0.000000 172504.845500 0.000000 0.000000 105352.747884 70009.464243 220472.311293 0.000000 0.000000 0.000000 0.000000 23024.574777 0.000000 81995.656174 41889.283672 0.000000 0.000000 0.000000 0.000000 0.000000 0.000000 8747.598984 46272.007637 0.000000 0.000000 62595.033230 0.000000 672.561199 165634.949440 0.000000 0.000000 0.000000 0.000000 0.000000 91943.163672 0.000000 108070.288063 0.000000 0.000000 0.000000 0.000000 118604.971456 0.000000 0.000000 0.000000 5912.788488 6962.655916 3092.806998 0.000000 0.000000 0.000000 152642.404437 21943.873279 0.000000 0.000000 0.000000 211028.196718 0.000000 0.000000 0.000000 0.000000 0.000000 0.000000 0.000000 0.000000 0.000000 0.000000 13037.222532 53228.049152 0.000000 0.000000 0.000000 274204.172023 0.000000 0.000000 0.000000 0.000000 0.000000 168900.415411 0.000000 225506.564244 0.000000 0.000000 0.000000 0.000000 0.000000 0.000000 21550.125344 37264.051515 0.000000 0.000000 243876.080361 0.000000 0.000000 0.000000 0.000000 125747.091089 17094.490933 162959.093558 0.000000 0.000000 0.000000 0.000000 0.000000 99292.897666 0.000000 0.000000 0.000000 0.000000 0.000000 0.000000 0.000000 0.000000 5607.005902 0.000000 293802.606849 78709.102527 223561.633767 59130.779164 256318.952441 298900.334849 12146.605819 0.000000 43174.919420 0.000000 0.000000 993.754299 0.000000 0.000000 154005.600542 0.000000 0.000000 0.000000 0.000000 470900.479328 0.000000 0.000000 0.000000 0.000000 0.000000 0.000000 186591.288671 0.000000 0.000000 0.000000 0.000000 139060.796641 9840.205252 104308.564159 0.000000 0.000000 0.000000 18398.130584 67202.345026 0.000000 0.000000 0.000000 0.000000 0.000000 0.000000 0.000000 649.876660 256187.453402 129926.718345 0.000000 88761.187130 92350.565129 0.000000 82517.066457 0.000000 0.000000 591537.216095 104404.562390 0.000000 0.000000 0.000000 0.000000 376385.213506 227640.645869 232947.837924 212420.022585 0.000000 0.000000 95277.356966 451132.150247 0.000000 0.000000 0.000000 0.000000 0.000000 23065.211962 0.000000 0.000000 0.000000 0.000000 28481.196882 293073.569878 0.000000 0.000000 0.000000 0.000000 0.000000 0.000000 0.000000 0.000000 204.998310 16430.345811 0.000000 0.000000 117880.922181 36483.161909 0.000000 577476.105258 0.000000 68937.700870 0.000000 0.000000 0.000000 0.000000 0.000000 112060.163049 0.000000 0.000000 211012.332560 67549.978009 0.000000 0.000000 0.000000 0.000000 0.000000 0.000000 0.000000 47081.255354 61045.663954 0.000000 165844.729194 0.000000 0.000000 92683.122830 0.000000 0.000000 178590.999968 0.000000 0.000000 94128.192972 0.000000 0.000000 0.000000 0.000000 0.000000 0.000000 11683.382493 48183.050999 1079297.685133 180228.272053 0.000000 82251.999369 0.000000 40589.915491 104198.924919 0.000000 0.000000 0.000000 0.000000 0.000000 0.000000 152998.013482 0.000000 0.000000 295415.399764 307363.306001 0.000000 811805.916015 156380.774069 0.000000 0.000000 0.000000 525177.081491 0.000000 102137.923802 187439.262243 289095.423810 0.000000 0.000000 0.000000 493151.973501 73060.616357 0.000000 0.000000 0.000000 0.000000 0.000000 0.000000 0.000000 0.000000 0.000000 0.000000 19266.955652 64958.012997 0.000000 0.000000 24874.598334 70407.187501 0.000000 0.000000 0.000000 100439.489671 0.000000 0.000000 0.000000 347138.986407 0.000000 635905.362726 0.000000 0.000000 0.000000 0.000000 123836.438816 0.000000 167255.510946 0.000000 0.000000 0.000000 145516.894507 133665.247193 0.000000 43803.333158 0.000000 273359.241837 134350.167359 0.000000 0.000000 0.000000 210813.852879 0.000000 0.000000 0.000000 0.000000 0.000000 0.000000 0.000000 0.000000 0.000000 6595.771602 76907.898259 0.000000 11561.533668 0.000000 0.000000 0.000000 0.000000 43064.483197 534920.413802 0.000000 0.000000 0.000000 16260.484417 0.000000 0.000000 0.000000 0.000000 0.000000 29419.924498 1771.442491 20607.914855 198511.285798 0.000000 31367.287371 96452.129279 83208.479776 0.000000 0.000000 0.000000 226876.947243 0.000000 0.000000 0.000000 125867.601675 0.000000 0.000000 14003.511184 0.000000 38515.770458 65467.514813 0.000000 0.000000 0.000000 0.000000 0.000000 0.000000 16189.192195 173335.162634 0.000000 0.000000 0.000000 32445.941838 67897.535823 212176.656589 211149.768891 138605.214070 0.000000 207698.578540 0.000000 0.000000 0.000000 0.000000 188475.766860 0.000000 10783.737052 0.000000 74991.418268 0.000000 0.000000 0.000000 0.000000 0.000000 0.000000 56921.084323 0.000000 9192.346216 0.000000 227859.127960 45956.568767 428980.529974 32947.451911 66587.742574 98688.708096 27315.419704 0.000000 0.000000 0.000000 0.000000 0.000000 0.000000 0.000000 9486.153712 2060.731747 0.000000 0.000000 0.000000 0.000000 2811.398666 0.000000 0.000000 0.000000 0.000000 0.000000 0.000000 313014.607338 0.000000 0.000000 15873.607404 0.000000 45962.375005 321255.727014 0.000000 0.000000 0.000000 0.000000 0.000000 0.000000 34906.425959 42421.284629 0.000000 0.000000 215911.774692 42247.547983 0.000000 0.000000 0.000000 19040.972886 0.000000 150569.080464 0.000000 0.000000 0.000000 0.000000 0.000000 0.000000 0.000000 0.000000 30654.805547 60151.742317 56609.267199 0.000000 154211.667461 0.000000 0.000000 0.000000 798426.786302 0.000000 30521.043592 23804.462062 49843.580035 0.000000 269395.202802 216112.541084 206382.751854 45154.375225 0.000000 196636.400385 0.000000 131416.676439 36686.665113 0.000000 0.000000 0.000000 0.000000 70772.819793 0.000000 0.000000 147192.245845 0.000000 120210.454264 77527.786225 0.000000 169794.362452 0.000000 0.000000 0.000000 0.000000 0.000000 0.000000 0.000000 0.000000 0.000000 0.000000 36464.201479 87380.411739 113639.404925 0.000000 0.000000 0.000000 0.000000 0.000000 0.000000 0.000000 0.000000 14449.961492 0.000000 0.000000 110641.940676 230991.834194 125170.231984 0.000000 62807.500736 0.000000 0.000000 0.000000 0.000000 0.000000 0.000000 31832.341232 131558.489620 89389.447591 0.000000 19567.963217 0.000000 0.000000 0.000000 0.000000 0.000000 493242.978462 0.000000 0.000000 0.000000 82129.471142 0.000000 0.000000 0.000000 0.000000 0.000000 0.000000 15867.663490 30473.274340 0.000000 127408.943593 0.000000 0.000000 0.000000 60702.543363 0.000000 0.000000 138418.316368 0.000000 0.000000 0.000000 7179.188258 216.361717 0.000000 0.000000 328935.012787 0.000000 0.000000 0.000000 239721.964706 0.000000 0.000000 11975.466520 0.000000 77678.826800 0.000000 0.000000 0.000000 0.000000 0.000000 106425.536478 74926.894546 0.000000 76025.260906 0.000000 0.000000 0.000000 0.000000 0.000000 0.000000 0.000000 0.000000 0.000000 12681.072468 14261.874659 0.000000 36462.150202 0.000000 0.000000 0.000000 0.000000 0.000000 0.000000 0.000000 31825.666323 56981.290996 17276.883173 215267.288043 245381.087901 28271.026597 0.000000 0.000000 0.000000 0.000000 0.000000 0.000000 187759.229551 0.000000 766706.166734 350393.876631 177363.866603 0.000000 0.000000 0.000000 0.000000 37454.534857 0.000000 30853.998812 0.000000 7666.010925 433950.545998 0.000000 0.000000 38485.948263 0.000000 0.000000 0.000000 0.000000 0.000000 15469.698659 31616.039333 0.000000 37041.548927 0.000000 0.000000 0.000000 0.000000 0.000000 134011.705597 0.000000 830198.716588 0.000000 0.000000 0.000000 0.000000 0.000000 436279.026811 0.000000 0.000000 0.000000 0.000000 0.000000 521313.381280 0.000000 1582.161763 427603.393684 67963.652691 0.000000 138289.396428 10887.930943 0.000000 34952.009333 0.000000 5868.506754 0.000000 0.000000 0.000000 0.000000 22273.005704 0.000000 0.000000 0.000000 0.000000 0.000000 0.000000 8596.974119 47606.577570 0.000000 0.000000 0.000000 0.000000 0.000000 4389.562219 29708.863991 0.000000 0.000000 0.000000 0.000000 0.000000 12709.150563 24898.328350 0.000000 0.000000 0.000000 0.000000 0.000000 28827.703543 163229.383125 0.000000 0.000000 0.000000 0.000000 0.000000 11501.247714 56282.121385 0.000000 0.000000 0.000000 0.000000 0.000000 25339.501555 58339.419095 0.000000 0.000000 0.000000 0.000000 0.000000 33060.742460 80562.700865 0.000000 0.000000 0.000000 0.000000 0.000000 16363.083392 33958.518505 0.000000 0.000000 0.000000 0.000000 0.000000 32976.644411 94440.588018 0.000000 0.000000 0.000000 0.000000 0.000000 14871.390004 53662.710904 0.000000 0.000000 0.000000 0.000000 0.000000 11907.749732 88855.391375 0.000000 0.000000 0.000000 0.000000 0.000000 21615.120618 95962.933389 0.000000 0.000000 0.000000 0.000000 0.000000 33321.156512 82947.680186 0.000000 0.000000 0.000000 0.000000 0.000000 14626.201067 0.000000 0.000000 0.000000 0.000000 0.000000 0.000000 0.000000 0.000000 0.000000 0.000000 0.000000 0.000000 0.000000 0.000000 0.000000 0.000000 0.000000 0.000000 0.000000 0.000000 0.000000 0.000000 0.000000 0.000000 0.000000 0.000000 0.000000 1670.067357 3862.693484 0.000000 0.000000 0.000000 0.000000 0.000000 5218.805681 20267.704945 0.000000 0.000000 0.000000 0.000000 0.000000 4850.949330 20707.369196 0.000000 0.000000 0.000000 0.000000 0.000000 7116.573210 61761.661318 0.000000 0.000000 0.000000 0.000000 0.000000 6843.373746 99711.472545 0.000000 0.000000 0.000000 0.000000 0.000000 10619.389247 48471.806850 0.000000 0.000000 0.000000 0.000000 0.000000 34115.560223 101659.493442 0.000000 0.000000 0.000000 0.000000 0.000000 53800.869487 356287.708640 0.000000 0.000000 0.000000 0.000000 0.000000 21848.058415 117678.860260 0.000000 0.000000 0.000000 0.000000 0.000000 44973.358620 205497.857725 0.000000 0.000000 0.000000 0.000000 0.000000 59290.600004 196462.642807 0.000000 0.000000 0.000000 0.000000 0.000000 24767.503172 67666.629655 0.000000 0.000000 0.000000 0.000000 0.000000 17623.487898 161309.337460 0.000000 0.000000 0.000000 0.000000 0.000000 18089.484366 184404.747851 0.000000 0.000000 0.000000 0.000000 0.000000 41986.428167 237293.108160 0.000000 0.000000 0.000000 0.000000 0.000000 15148.597592 35952.556898 0.000000 0.000000 0.000000 0.000000 0.000000 2901.200026 133.304076 0.000000 0.000000 0.000000 0.000000 0.000000 21485.575031 103148.285607 0.000000 0.000000 0.000000 0.000000 0.000000 28518.597737 243477.915683 0.000000 0.000000 0.000000 0.000000 0.000000 28354.254702 128917.695873 0.000000 0.000000 0.000000 0.000000 0.000000 42054.106844 92904.084603 0.000000 0.000000 0.000000 0.000000 0.000000 9737.447399 0.000000 0.000000 0.000000 0.000000 0.000000 0.000000 0.000000 0.000000 0.000000 0.000000 0.000000 0.000000 0.000000 24786.851286 91756.195744 0.000000 0.000000 0.000000 0.000000 0.000000 48136.120304 227117.047664 0.000000 0.000000 0.000000 0.000000 0.000000 23110.650869 55507.704437 0.000000 0.000000 0.000000 0.000000 0.000000 12017.683486 23430.475315 0.000000 0.000000 0.000000 0.000000 0.000000 3804.542696 3314.431083 0.000000 0.000000 0.000000 0.000000 0.000000 1890.074009 0.000000 0.000000 0.000000 0.000000 0.000000 0.000000 23050.071264 52657.355751 0.000000 0.000000 0.000000 0.000000 0.000000 38349.289857 164345.998043 0.000000 0.000000 0.000000 0.000000 0.000000 45330.405538 287457.232049 0.000000 0.000000 0.000000 0.000000 0.000000 29973.842812 142996.297354 0.000000 0.000000 0.000000 0.000000 0.000000 5897.522751 7987.312306 0.000000 0.000000 0.000000 0.000000 0.000000 5417.418272 46637.959424 0.000000 0.000000 0.000000 0.000000 0.000000 14617.249992 64238.224052 0.000000 0.000000 0.000000 0.000000 0.000000 7257.776502 6683.310773 0.000000 0.000000 0.000000 0.000000 0.000000 36490.013255 122079.530111 0.000000 0.000000 0.000000 0.000000 0.000000 46652.209827 112307.009833 0.000000 0.000000 0.000000 0.000000 0.000000 27322.598191 172375.241296 0.000000 0.000000 0.000000 0.000000 0.000000 8755.498128 91518.612353 0.000000 0.000000 0.000000 0.000000 0.000000 4196.003712 28150.643424 0.000000 0.000000 0.000000 0.000000 0.000000 22222.667751 183954.620714 0.000000 0.000000 0.000000 0.000000 0.000000 5621.393843 9746.048464 0.000000 0.000000 0.000000 0.000000 0.000000 0.000000 0.000000 0.000000 0.000000 0.000000 0.000000 0.000000 0.000000 0.000000 0.000000 0.000000 0.000000 0.000000 0.000000 0.000000 0.000000 0.000000 0.000000 0.000000 0.000000 0.000000 0.000000 0.000000 0.000000 0.000000 0.000000 0.000000 0.000000 0.000000 0.000000 0.000000 0.000000 0.000000 0.000000 0.000000 27972.464239 19776.567311 0.000000 0.000000 0.000000 0.000000 0.000000 61923.551844 145489.423021 0.000000 0.000000 0.000000 0.000000 0.000000 18727.414570 70869.327789 0.000000 0.000000 0.000000 0.000000 0.000000 20942.064066 215865.494201 0.000000 0.000000 0.000000 0.000000 0.000000 22961.433216 295286.321011 0.000000 0.000000 0.000000 0.000000 0.000000 11518.974545 161121.801315 0.000000 0.000000 0.000000 0.000000 0.000000 13226.028892 112986.713903 0.000000 0.000000 0.000000 0.000000 0.000000 37006.007783 73516.087524 0.000000 0.000000 0.000000 0.000000 0.000000 60946.175925 103997.183187 0.000000 0.000000 0.000000 0.000000 0.000000 33809.845368 117958.467900 0.000000 0.000000 0.000000 0.000000 0.000000 45261.179870 288489.851171 0.000000 0.000000 0.000000 0.000000 0.000000 80941.591513 353286.533863 0.000000 0.000000 0.000000 0.000000 7.228604 175575.562717 843336.496357 0.000000 0.000000 0.000000 0.000000 0.000000 96372.445498 518586.212547 0.000000 0.000000 0.000000 0.000000 0.000000 72858.495749 503865.070273 0.000000 0.000000 0.000000 0.000000 0.000000 22685.671808 118913.123841 104580.316550 71507.115060 77585.909494 49898.652813 80283.475587 23535.178268 0.000000 0.000000 0.000000 0.000000 24250.451998 0.000000 0.000000 0.000000 0.000000 0.000000 0.000000 0.000000 0.000000 0.000000 0.000000 0.000000 0.000000 0.000000 0.000000 0.000000 0.000000 0.000000 0.000000 0.000000 0.000000 0.000000 0.000000 0.000000 0.000000 0.000000 0.000000 0.000000 0.000000 0.000000 0.000000 0.000000 0.000000 0.000000 0.000000 0.000000 0.000000 0.000000 0.000000 0.000000 0.000000 0.000000 0.000000 0.000000 0.000000 0.000000 0.000000 0.000000 0.000000 0.000000 0.000000 0.000000 0.000000 0.000000 0.000000 0.000000 0.000000 0.000000 0.000000 0.000000 0.000000 0.000000 0.000000 0.000000 0.000000 0.000000 0.000000 0.000000 0.000000 0.000000 0.000000 0.000000 0.000000 0.000000 0.000000 0.000000 0.000000 0.000000 0.000000 0.000000 0.000000 0.000000 0.000000 0.000000 0.000000 0.000000 0.000000 0.000000 0.000000 0.000000 0.000000 0.000000 0.000000 0.000000 0.000000 0.000000 0.000000 0.000000 0.000000 0.000000 0.000000 0.000000 0.000000 0.000000 0.000000 0.000000 0.000000 0.000000 0.000000 0.000000 0.000000 0.000000 0.000000 0.000000 0.000000 0.000000 0.000000 0.000000 0.000000 0.000000 0.000000 0.000000 0.000000 0.000000 0.000000 0.000000 0.000000 0.000000 0.000000 0.000000 0.000000 0.000000 0.000000 0.000000 0.000000 0.000000 0.000000 0.000000 0.000000 0.000000 0.000000 0.000000 0.000000 0.000000 0.000000 0.000000 0.000000 0.000000 0.000000 0.000000 0.000000 0.000000 0.000000 0.000000 0.000000 0.000000 0.000000
</DataArray>
<DataArray type="Float64" Name="Velocity" NumberOfComponents="3" format="ascii">