<VTKFile type="PolyData">
<PolyData>
<Piece NumberOfPoints="1840" NumberOfVerts="1840" NumberOfLines="0" NumberOfStrips="0" NumberOfPolys="0">
<PointData>
<DataArray type="Float64" Name="Pressure" format="ascii">
 0.000000 0.000000 0.000000 0.000000 0.000000 0.000000 0.000000 0.000000 0.000000 0.000000 0.000000 0.000000 0.000000 0.000000 0.000000 0.000000 0.000000 0.000000 0.000000 0.000000 0.000000 0.000000 0.000000 0.000000 0.000000 0.000000 0.000000 0.000000 0.000000 0.000000 0.000000 0.000000 0.000000 0.000000 0.000000 0.000000 0.000000 0.000000 0.000000 0.000000 0.000000 0.000000 0.000000 0.000000 0.000000 0.000000 0.000000 0.000000 0.000000 0.000000 0.000000 0.000000 0.000000 0.000000 0.000000 0.000000 0.000000 0.000000 0.000000 0.000000 0.000000 0.000000 0.000000 0.000000 0.000000 0.000000 0.000000 0.000000 0.000000 0.000000 0.000000 0.000000 0.000000 0.000000 0.000000 0.000000 0.000000 0.000000 0.000000 0.000000 0.000000 0.000000 0.000000 0.000000 0.000000 0.000000 0.000000 0.000000 0.000000 0.000000 0.000000 0.000000 0.000000 0.000000 0.000000 0.000000 0.000000 0.000000 0.000000 0.000000 0.000000 0.000000 0.000000 0.000000 0.000000 0.000000 0.000000 0.000000 0.000000 0.000000 0.000000 0.000000 0.000000 0.000000 0.000000 0.000000 1707.213336 25387.601487 53044.924003 26624.192723 39748.270327 42438.410120 3313.679162 0.000000 0.000000 0.000000 0.000000 0.000000 0.000000 0.000000 0.000000 0.000000 0.000000 0.000000 0.000000 0.000000 0.000000 0.000000 0.000000 0.000000 0.000000 0.000000 0.000000 0.000000 0.000000 0.000000 0.000000 0.000000 0.000000 0.000000 0.000000 0.000000 0.000000 0.000000 0.000000 0.000000 0.000000 0.000000 0.000000 0.000000 0.000000 0.000000 0.000000 0.000000 0.000000 0.000000 0.000000 0.000000 0.000000 0.000000 0.000000 0.000000 0.000000 8685.385841 100617.993188 278138.461676 168360.003259 272733.903008 95989.359852 0.000000 0.000000 0.000000 0.000000 0.000000 0.000000 0.000000 0.000000 0.000000 0.000000 0.000000 0.000000 0.000000 0.000000 0.000000 0.000000 0.000000 0.000000 0.000000 0.000000 0.000000 0.000000 0.000000 0.000000 0.000000 0.000000 0.000000 0.000000 0.000000 0.000000 0.000000 0.000000 0.000000 0.000000 0.000000 0.000000 0.000000 0.000000 0.000000 0.000000 0.000000 0.000000 0.000000 0.000000 0.000000 0.000000 0.000000 0.000000 0.000000 0.000000 0.000000 3170.570252 8785.982597 0.000000 0.000000 0.000000 0.000000 77677.896511 0.000000 0.000000 0.000000 0.000000 0.000000 0.000000 0.000000 0.000000 0.000000 137429.846271 73117.721649 31935.607827 0.000000 244068.795610 0.000000 0.000000 0.000000 11121.441772 0.000000 0.000000 69844.813131 0.000000 101614.630359 0.000000 0.000000 0.000000 0.000000 8514.929992 0.000000 0.000000 0.000000 0.000000 8688.558644 0.000000 0.000000 0.000000 0.000000 0.000000 0.000000 20641.290622 22696.973185 0.000000 0.000000 29710.051677 568.468324 0.000000 67380.879546 0.000000 0.000000 0.000000 0.000000 0.000000 335887.493325 0.000000 196465.985408 48518.273020 148732.460825 0.000000 0.000000 0.000000 0.000000 37723.517167 95676.533292 0.000000 30892.950097 55050.151268 0.000000 0.000000 224075.311904 0.000000 0.000000 95797.513448 0.000000 0.000000 0.000000 0.000000 0.000000 0.000000 0.000000 56499.521468 0.000000 0.000000 0.000000 0.000000 0.000000 56863.226510 190801.174975 0.000000 0.000000 0.000000 440493.896708 0.000000 0.000000 0.000000 0.000000 0.000000 0.000000 3553.626434 0.000000 65536.543803 0.000000 134507.302429 0.000000 0.000000 0.000000 0.000000 449154.567754 139761.785573 7693.887976 126061.640449 0.000000 0.000000 0.000000 0.000000 0.000000 0.000000 0.000000 57235.483437 0.000000 0.000000 0.000000 47520.506016 0.000000 106291.693412 0.000000 0.000000 0.000000 0.000000 0.000000 0.000000 0.000000 20870.655556 15923.113560 0.000000 0.000000 0.000000 57998.076799 288782.744143 0.000000 0.000000 0.000000 67256.874732 0.000000 0.000000 0.000000 69435.024352 146718.564353 0.000000 202901.850505 0.000000 3159.448330 15266.696075 0.000000 0.000000 0.000000 59305.499408 0.000000 0.000000 0.000000 0.000000 0.000000 0.000000 0.000000 0.000000 8762.657068 115549.373766 7832.706165 0.000000 13240.312210 0.000000 197318.626672 0.000000 0.000000 0.000000 0.000000 0.000000 0.000000 6408.366520 0.000000 193562.308381 0.000000 123823.438505 0.000000 0.000000 0.000000 0.000000 0.000000 0.000000 0.000000 0.000000 0.000000 11902.128515 0.000000 7228.254957 0.000000 11395.797700 0.000000 0.000000 0.000000 0.000000 0.000000 0.000000 0.000000 118954.600046 0.000000 0.000000 0.000000 0.000000 0.000000 0.000000 0.000000 0.000000 0.000000 0.000000 0.000000 43012.451614 0.000000 4710.776395 0.000000 0.000000 0.000000 0.000000 0.000000 17700.892849 62865.141652 0.000000 0.000000 0.000000 0.000000 0.000000 184875.422807 0.000000 0.000000 7939.447058 0.000000 45856.785588 0.000000 0.000000 0.000000 0.000000 89884.263651 0.000000 0.000000 0.000000 5411.600487 177015.392880 105464.853012 0.000000 0.000000 46752.055456 0.000000 271720.497149 0.000000 0.000000 0.000000 7271.493412 77643.634067 60744.889400 61954.972226 42379.055895 0.000000 0.000000 0.000000 143028.853774 0.000000 0.000000 0.000000 0.000000 0.000000 2896.257897 0.000000 174375.141348 0.000000 0.000000 0.000000 0.000000 26361.785493 37349.103677 0.000000 370835.927388 213733.823206 67608.544421 0.000000 69773.689014 0.000000 116298.848439 0.000000 0.000000 0.000000 0.000000 0.000000 0.000000 0.000000 0.000000 96894.594133 0.000000 131171.279587 75875.432895 0.000000 0.000000 116243.657798 59134.495735 0.000000 19294.707816 0.000000 0.000000 0.000000 165805.270378 57018.391886 0.000000 0.000000 0.000000 0.000000 0.000000 0.000000 0.000000 0.000000 11565.808146 0.000000 0.000000 0.000000 0.000000 0.000000 0.000000 29935.672593 0.000000 0.000000 37539.138489 0.000000 0.000000 0.000000 0.000000 4384.896379 0.000000 0.000000 0.000000 0.000000 411557.316155 103732.361666 34528.941336 0.000000 8110.568284 0.000000 0.000000 25021.800701 0.000000 0.000000 6979.268884 0.000000 157425.647182 175488.343754 0.000000 0.000000 5414.867170 11490.316767 0.000000 0.000000 0.000000 0.000000 0.000000 0.000000 2858.015278 0.000000 0.000000 0.000000 0.000000 0.000000 0.000000 79620.916886 0.000000 0.000000 0.000000 140458.031836 166685.031439 0.000000 0.000000 0.000000 246534.059563 0.000000 4526.959343 0.000000 0.000000 101117.716566 0.000000 0.000000 0.000000 51247.052039 19086.675054 43894.011459 4993.465730 2033.117219 0.000000 101461.263050 0.000000 0.000000 0.000000 52525.132808 0.000000 0.000000 13897.563444 0.000000 0.000000 0.000000 0.000000 0.000000 0.000000 0.000000 8750.899432 15502.479250 32452.245485 0.000000 83825.740938 0.000000 74362.959478 0.000000 0.000000 49534.581635 76934.899459 0.000000 0.000000 25088.334314 0.000000 47468.653378 0.000000 21116.552310 0.000000 0.000000 0.000000 0.000000 0.000000 5882.741250 87052.546661 0.000000 0.000000 0.000000 0.000000 0.000000 0.000000 0.000000 29965.168231 42489.981384 106548.523518 95504.815059 0.000000 73299.160155 155157.228352 78404.799488 0.000000 0.000000 0.000000 0.000000 0.000000 0.000000 1372.146848 31460.905501 0.000000 0.000000 0.000000 0.000000 0.000000 0.000000 0.000000 74567.585295 0.000000 19019.437349 29145.114992 0.000000 0.000000 0.000000 0.000000 0.000000 0.000000 0.000000 0.000000 68910.100621 6002.121396 9853.341559 0.000000 5418.262094 0.000000 0.000000 259709.917769 0.000000 0.000000 0.000000 141875.104326 668903.589380 0.000000 0.000000 0.000000 0.000000 0.000000 0.000000 0.000000 0.000000 0.000000 0.000000 0.000000 0.000000 0.000000 0.000000 0.000000 0.000000 0.000000 108836.149467 0.000000 0.000000 0.000000 0.000000 320162.892999 159720.968838 0.000000 0.000000 0.000000 0.000000 0.000000 56182.839895 0.000000 0.000000 0.000000 0.000000 2285.838204 0.000000 0.000000 108902.170964 0.000000 73623.410743 0.000000 0.000000 12511.485170 100456.421835 0.000000 91918.645598 0.000000 48993.905390 73939.192044 0.000000 77149.303329 0.000000 0.000000 0.000000 0.000000 0.000000 0.000000 0.000000 12524.099355 0.000000 73093.142160 0.000000 24449.918545 0.000000 15054.105744 0.000000 0.000000 0.000000 102757.436429 0.000000 0.000000 9990.807896 8550.286225 19081.902505 0.000000 0.000000 0.000000 0.000000 0.000000 139972.912367 0.000000 0.000000 0.000000 0.000000 0.000000 0.000000 0.000000 37467.440663 0.000000 0.000000 0.000000 0.000000 0.000000 0.000000 0.000000 0.000000 70370.171675 66830.562668 0.000000 0.000000 0.000000 0.000000 0.000000 0.000000 47604.543445 119015.228283 0.000000 60742.326412 0.000000 0.000000 0.000000 0.000000 0.000000 11350.900871 133574.295879 0.000000 227096.013605 0.000000 0.000000 25161.587682 0.000000 0.000000 0.000000 0.000000 22510.208304 0.000000 0.000000 0.000000 0.000000 0.000000 0.000000 0.000000 0.000000 0.000000 111325.855838 0.000000 0.000000 0.000000 0.000000 101144.540268 0.000000 0.000000 67023.776310 0.000000 0.000000 0.000000 0.000000 0.000000 0.000000 0.000000 32656.166166 59376.266612 66137.157964 70932.391672 0.000000 105666.348340 28792.768286 0.000000 69991.824353 0.000000 0.000000 0.000000 0.000000 0.000000 0.000000 0.000000 401842.294709 0.000000 0.000000 0.000000 24669.074214 0.000000 164540.258580 59194.697960 0.000000 0.000000 0.000000 0.000000 0.000000 0.000000 57275.867131 0.000000 0.000000 0.000000 0.000000 0.000000 0.000000 0.000000 0.000000 3599.658825 35802.502509 0.000000 0.000000 0.000000 0.000000 0.000000 3300.922724 2654.371608 0.000000 0.000000 0.000000 154877.728792 0.000000 307647.526421 10857.456301 0.000000 0.000000 0.000000 0.000000 0.000000 0.000000 65638.552942 0.000000 83299.559622 0.000000 0.000000 0.000000 38899.123476 213662.153068 0.000000 0.000000 0.000000 0.000000 0.000000 0.000000 187728.556017 63438.054751 0.000000 235162.266547 13895.348404 0.000000 0.000000 0.000000 0.000000 19086.606533 0.000000 20669.862065 0.000000 0.000000 0.000000 0.000000 0.000000 21962.004332 24818.646932 0.000000 16137.907664 0.000000 92277.141438 66010.859043 147277.736735 12544.376762 0.000000 22851.488694 0.000000 0.000000 0.000000 0.000000 0.000000 105083.052772 0.000000 0.000000 0.000000 0.000000 1110.301993 0.000000 19574.655309 123244.011664 21059.655402 121258.603271 24517.981230 61276.086976 129125.696263 0.000000 73060.124010 85259.625285 0.000000 84157.976195 0.000000 0.000000 0.000000 57897.539653 0.000000 0.000000 0.000000 0.000000 0.000000 0.000000 0.000000 88161.948196 203084.979141 0.000000 99597.845971 0.000000 0.000000 0.000000 0.000000 1080.680431 62460.739625 0.000000 0.000000 0.000000 10855.158540 0.000000 0.000000 0.000000 0.000000 0.000000 9032.450377 0.000000 0.000000 41199.813042 0.000000 0.000000 0.000000 0.000000 0.000000 0.000000 6389.140063 42731.512344 0.000000 363529.618423 0.000000 15255.676055 0.000000 0.000000 0.000000 0.000000 0.000000 0.000000 0.000000 0.000000 0.000000 0.000000 0.000000 30767.349648 21276.417413 0.000000 92446.644394 0.000000 0.000000 0.000000 114036.190702 0.000000 66230.434853 0.000000 0.000000 0.000000 190750.731723 170911.586383 157624.051624 0.000000 13690.107296 0.000000 0.000000 0.000000 0.000000 496114.039196 0.000000 0.000000 0.000000 151593.884252 0.000000 0.000000 5583.521404 0.000000 0.000000 0.000000 46839.774429 120086.323318 0.000000 0.000000 0.000000 0.000000 0.000000 0.000000 0.000000 0.000000 0.000000 0.000000 0.000000 10764.064630 0.000000 0.000000 0.000000 0.000000 0.000000 0.000000 56845.974799 51598.246815 0.000000 0.000000 0.000000 0.000000 0.000000 32554.796411 54172.507813 0.000000 0.000000 0.000000 0.000000 0.000000 4638.968140 27320.471868 0.000000 0.000000 0.000000 0.000000 0.000000 18139.699865 60501.589432 0.000000 0.000000 0.000000 0.000000 0.000000 50903.718342 122567.563636 0.000000 0.000000 0.000000 0.000000 0.000000 26315.482468 26651.558054 0.000000 0.000000 0.000000 0.000000 0.000000 37003.405512 123709.479240 0.000000 0.000000 0.000000 0.000000 0.000000 18698.646434 25798.686196 0.000000 0.000000 0.000000 0.000000 0.000000 16276.121132 0.000000 0.000000 0.000000 0.000000 0.000000 0.000000 48910.623484 28069.763995 0.000000 0.000000 0.000000 0.000000 0.000000 16571.794933 4292.788617 0.000000 0.000000 0.000000 0.000000 0.000000 2691.688008 27858.649963 0.000000 0.000000 0.000000 0.000000 0.000000 12950.893060 125783.235431 0.000000 0.000000 0.000000 0.000000 0.000000 38728.524642 190319.192272 0.000000 0.000000 0.000000 0.000000 0.000000 34692.021657 75518.402363 0.000000 0.000000 0.000000 0.000000 0.000000 6441.184075 0.000000 0.000000 0.000000 0.000000 0.000000 0.000000 5763.483102 8877.431978 0.000000 0.000000 0.000000 0.000000 0.000000 1389.190363 11769.346572 0.000000 0.000000 0.000000 0.000000 0.000000 12479.215739 60326.149437 0.000000 0.000000 0.000000 0.000000 0.000000 35982.021810 193776.161133 0.000000 0.000000 0.000000 0.000000 0.000000 20260.110925 94423.180911 0.000000 0.000000 0.000000 0.000000 0.000000 14451.866759 62557.650246 0.000000 0.000000 0.000000 0.000000 0.000000 39106.070327 125684.877275 0.000000 0.000000 0.000000 0.000000 0.000000 44052.938368 109143.998722 0.000000 0.000000 0.000000 0.000000 0.000000 16316.907179 24068.921153 0.000000 0.000000 0.000000 0.000000 0.000000 10497.029810 12928.139374 0.000000 0.000000 0.000000 0.000000 0.000000 34700.039308 205533.301817 0.000000 0.000000 0.000000 0.000000 0.000000 32802.428802 286394.668911 0.000000 0.000000 0.000000 0.000000 0.000000 6517.845567 70370.645412 0.000000 0.000000 0.000000 0.000000 0.000000 5657.840113 18998.622804 0.000000 0.000000 0.000000 0.000000 0.000000 31714.176095 42118.785585 0.000000 0.000000 0.000000 0.000000 0.000000 31130.831315 49732.138615 0.000000 0.000000 0.000000 0.000000 0.000000 13738.390719 38163.077269 0.000000 0.000000 0.000000 0.000000 0.000000 751.122198 0.000000 0.000000 0.000000 0.000000 0.000000 0.000000 9602.721993 34952.244015 0.000000 0.000000 0.000000 0.000000 0.000000 57088.893264 321643.324163 0.000000 0.000000 0.000000 0.000000 0.000000 65060.755161 347967.629982 0.000000 0.000000 0.000000 0.000000 0.000000 11582.937597 49786.875427 0.000000 0.000000 0.000000 0.000000 0.000000 0.000000 8561.522534 0.000000 0.000000 0.000000 0.000000 0.000000 2242.584511 44116.583894 0.000000 0.000000 0.000000 0.000000 0.000000 144.634024 0.000000 0.000000 0.000000 0.000000 0.000000 0.000000 5245.884552 0.000000 0.000000 0.000000 0.000000 0.000000 0.000000 5966.393769 0.000000 0.000000 0.000000 0.000000 0.000000 0.000000 0.000000 0.000000 0.000000 0.000000 0.000000 0.000000 0.000000 117.229636 0.000000 0.000000 0.000000 0.000000 0.000000 0.000000 6992.268731 0.000000 0.000000 0.000000 0.000000 0.000000 0.000000 25546.681112 58708.972792 0.000000 0.000000 0.000000 0.000000 0.000000 38166.146324 223415.744801 0.000000 0.000000 0.000000 0.000000 0.000000 15659.527373 89572.368233 0.000000 0.000000 0.000000 0.000000 0.000000 27676.268760 60413.932944 0.000000 0.000000 0.000000 0.000000 0.000000 31804.657514 110580.558032 0.000000 0.000000 0.000000 0.000000 0.000000 6341.687867 7059.071058 0.000000 0.000000 0.000000 0.000000 0.000000 0.000000 0.000000 0.000000 0.000000 0.000000 0.000000 0.000000 0.000000 0.000000 0.000000 0.000000 0.000000 0.000000 0.000000 9624.394300 0.000000 0.000000 0.000000 0.000000 0.000000 0.000000 8797.611943 0.000000 0.000000 0.000000 0.000000 0.000000 0.000000 28437.802617 63185.912965 0.000000 0.000000 0.000000 0.000000 0.000000 31756.207536 167853.340686 0.000000 0.000000 0.000000 0.000000 0.000000 27412.174938 127070.168043 0.000000 0.000000 0.000000 0.000000 0.000000 69556.890989 466180.423923 0.000000 0.000000 0.000000 0.000000 0.000000 26019.888681 198085.805159 0.000000 0.000000 0.000000 0.000000 0.000000 4986.909606 13536.755949 0.000000 0.000000 0.000000 0.000000 0.000000 10789.858518 9551.533237 0.000000 0.000000 0.000000 0.000000 0.000000 46407.481366 155086.537187 0.000000 0.000000 0.000000 0.000000 0.000000 87698.364572 505162.316203 0.000000 0.000000 0.000000 0.000000 0.000000 28139.551530 67123.182925 0.000000 0.000000 0.000000 0.000000 0.000000 0.000000 0.000000 0.000000 0.000000 0.000000 0.000000 0.000000 18172.090459 99293.474623 0.000000 0.000000 0.000000 0.000000 0.000000 36509.484467 482297.316599 0.000000 0.000000 0.000000 0.000000 0.000000 9307.143103 48352.569033 0.000000 0.000000 0.000000 0.000000 0.000000 26.842758 0.000000 0.000000 0.000000 0.000000 0.000000 0.000000 0.000000 0.000000 0.000000 0.000000 0.000000 0.000000 0.000000 543.278756 11937.273492 0.000000 0.000000 0.000000 0.000000 0.000000 10208.258709 18897.957761 0.000000 0.000000 0.000000 0.000000 0.000000 44036.900994 64870.010319 0.000000 0.000000 0.000000 0.000000 0.000000 58271.766610 78389.550302 0.000000 0.000000 0.000000 0.000000 0.000000 101357.970214 340157.397143 0.000000 0.000000 0.000000 0.000000 0.000000 37951.377070 141032.175199 0.000000 0.000000 0.000000 0.000000 0.000000 19207.028282 59657.347588 0.000000 0.000000 0.000000 0.000000 0.000000 14774.097547 61833.850285 0.000000 0.000000 0.000000 0.000000 0.000000 818.849414 4347.939517 12940.388181 0.000000 0.000000 641.636849 15791.532985 25189.029218 0.000000 0.000000 0.000000 0.000000 0.000000 0.000000 0.000000 0.000000 0.000000 0.000000 0.000000 0.000000 0.000000 0.000000 0.000000 0.000000 0.000000 0.000000 0.000000 0.000000 0.000000 0.000000 0.000000 0.000000 0.000000 0.000000 0.000000 0.000000 0.000000 0.000000 0.000000 0.000000 0.000000 0.000000 0.000000 0.000000 0.000000 0.000000 0.000000 0.000000 0.000000 0.000000 0.000000 0.000000 0.000000 0.000000 0.000000 0.000000 0.000000 0.000000 0.000000 0.000000 0.000000 0.000000 0.000000 0.000000 0.000000 0.000000 0.000000 0.000000 0.000000 0.000000 0.000000 0.000000 0.000000 0.000000 0.000000 0.000000 0.000000 0.000000 0.000000 0.000000 0.000000 0.000000 0.000000 0.000000 0.000000 0.000000 0.000000 0.000000 0.000000 0.000000 0.000000 0.000000 0.000000 0.000000 0.000000 0.000000 0.000000 0.000000 0.000000 0.000000 0.000000 0.000000 0.000000 0.000000 0.000000 0.000000 0.000000 0.000000 0.000000 0.000000 0.000000 0.000000 0.000000 0.000000 0.000000 0.000000 0.000000 0.000000 0.000000 0.000000 0.000000 0.000000 0.000000 0.000000 0.000000 0.000000 0.000000 0.000000 0.000000 0.000000 0.000000 0.000000 0.000000 0.000000 0.000000 0.000000 0.000000 0.000000 0.000000 0.000000 0.000000 0.000000 0.000000 0.000000 0.000000 0.000000 0.000000 0.000000 0.000000 0.000000 0.000000 0.000000 0.000000 0.000000 0.000000 0.000000 0.000000 0.000000 0.000000 0.000000 0.000000 0.000000 0.000000 0.000000 0.000000 0.000000 0.000000 0.000000 0.000000
</DataArray>
<DataArray type="Float64" Name="Velocity" NumberOfComponents="3" format="ascii">