<VTKFile type="PolyData">
<PolyData>
<Piece NumberOfPoints="1840" NumberOfVerts="1840" NumberOfLines="0" NumberOfStrips="0" NumberOfPolys="0">
<PointData>
<DataArray type="Float64" Name="Pressure" format="ascii">
 0.000000 0.000000 0.000000 0.000000 0.000000 0.000000 0.000000 0.000000 0.000000 0.000000 0.000000 0.000000 0.000000 0.000000 0.000000 0.000000 0.000000 0.000000 0.000000 0.000000 0.000000 0.000000 0.000000 0.000000 0.000000 0.000000 0.000000 0.000000 0.000000 0.000000 0.000000 0.000000 0.000000 0.000000 0.000000 0.000000 0.000000 0.000000 0.000000 0.000000 0.000000 0.000000 0.000000 0.000000 0.000000 0.000000 0.000000 0.000000 0.000000 0.000000 0.000000 0.000000 0.000000 0.000000 0.000000 0.000000 0.000000 0.000000 0.000000 0.000000 0.000000 0.000000 0.000000 0.000000 0.000000 0.000000 0.000000 0.000000 0.000000 0.000000 0.000000 0.000000 0.000000 0.000000 0.000000 0.000000 0.000000 0.000000 0.000000 0.000000 0.000000 0.000000 0.000000 0.000000 0.000000 0.000000 0.000000 0.000000 0.000000 0.000000 0.000000 0.000000 0.000000 0.000000 0.000000 0.000000 0.000000 0.000000 0.000000 0.000000 0.000000 0.000000 0.000000 0.000000 0.000000 0.000000 0.000000 0.000000 0.000000 0.000000 0.000000 0.000000 0.000000 0.000000 0.000000 0.000000 0.000000 0.000000 0.000000 0.000000 0.000000 0.000000 0.000000 0.000000 0.000000 0.000000 0.000000 0.000000 0.000000 0.000000 0.000000 0.000000 0.000000 0.000000 0.000000 0.000000 0.000000 0.000000 0.000000 0.000000 0.000000 0.000000 0.000000 0.000000 0.000000 0.000000 0.000000 0.000000 0.000000 0.000000 0.000000 0.000000 0.000000 0.000000 0.000000 0.000000 0.000000 0.000000 0.000000 0.000000 0.000000 0.000000 0.000000 0.000000 0.000000 0.000000 0.000000 0.000000 0.000000 0.000000 0.000000 0.000000 0.000000 0.000000 0.000000 0.000000 0.000000 0.000000 0.000000 0.000000 0.000000 0.000000 0.000000 0.000000 0.000000 0.000000 0.000000 0.000000 0.000000 0.000000 0.000000 0.000000 0.000000 0.000000 0.000000 0.000000 0.000000 0.000000 0.000000 0.000000 0.000000 0.000000 0.000000 0.000000 0.000000 0.000000 0.000000 0.000000 0.000000 0.000000 0.000000 0.000000 0.000000 0.000000 0.000000 0.000000 0.000000 0.000000 0.000000 0.000000 0.000000 0.000000 0.000000 0.000000 0.000000 0.000000 0.000000 0.000000 0.000000 0.000000 0.000000 0.000000 0.000000 0.000000 0.000000 0.000000 0.000000 0.000000 58788.822009 0.000000 0.000000 0.000000 0.000000 0.000000 0.000000 0.000000 0.000000 125862.219207 0.000000 0.000000 0.000000 0.000000 75560.144888 0.000000 0.000000 0.000000 0.000000 0.000000 0.000000 0.000000 0.000000 8271.568997 36167.684027 0.000000 82774.824667 0.000000 0.000000 0.000000 0.000000 0.000000 104532.887898 0.000000 0.000000 0.000000 0.000000 0.000000 10896.752631 6738.298841 0.000000 0.000000 0.000000 14320.922841 0.000000 0.000000 41174.701477 20906.305455 0.000000 72123.461390 0.000000 0.000000 0.000000 0.000000 113334.166872 48920.684239 0.000000 0.000000 0.000000 0.000000 55220.156720 0.000000 0.000000 0.000000 81620.472253 8769.700904 0.000000 122434.578536 0.000000 3752.476554 0.000000 36379.931455 0.000000 0.000000 0.000000 115846.288107 0.000000 0.000000 0.000000 0.000000 0.000000 0.000000 0.000000 0.000000 28349.148892 102170.953575 0.000000 4081.352592 0.000000 0.000000 0.000000 0.000000 0.000000 0.000000 0.000000 0.000000 0.000000 0.000000 0.000000 0.000000 0.000000 0.000000 0.000000 0.000000 0.000000 0.000000 84571.881808 226244.410856 18651.188961 0.000000 0.000000 55784.269565 0.000000 0.000000 0.000000 152722.005533 0.000000 0.000000 60809.166363 0.000000 0.000000 0.000000 12492.213814 108327.490178 0.000000 0.000000 0.000000 0.000000 0.000000 0.000000 7010.824150 0.000000 0.000000 0.000000 176079.203810 34005.671212 0.000000 14026.448666 148.998418 120908.019645 0.000000 7519.398639 0.000000 283194.512687 46653.464547 0.000000 0.000000 0.000000 0.000000 6624.787388 50432.742007 0.000000 0.000000 0.000000 0.000000 0.000000 190050.761663 281828.192008 0.000000 0.000000 0.000000 0.000000 0.000000 44468.784033 0.000000 0.000000 0.000000 0.000000 12982.099169 0.000000 7920.961813 0.000000 0.000000 0.000000 0.000000 0.000000 3571.123660 10423.181467 0.000000 0.000000 226068.024529 0.000000 0.000000 0.000000 0.000000 0.000000 0.000000 48884.789005 0.000000 0.000000 0.000000 75761.776895 0.000000 0.000000 0.000000 0.000000 0.000000 0.000000 0.000000 0.000000 0.000000 0.000000 0.000000 88804.629797 0.000000 0.000000 0.000000 0.000000 0.000000 299988.021426 0.000000 59036.064446 0.000000 94904.983030 0.000000 82742.827697 0.000000 0.000000 0.000000 0.000000 0.000000 0.000000 21094.642081 88266.485714 0.000000 7973.977446 0.000000 47150.600866 0.000000 0.000000 0.000000 0.000000 164007.529499 0.000000 0.000000 28126.893866 0.000000 0.000000 0.000000 76778.349041 0.000000 39202.900950 0.000000 0.000000 0.000000 0.000000 0.000000 0.000000 0.000000 0.000000 15060.926584 0.000000 0.000000 0.000000 0.000000 137553.866465 12766.205988 98992.589538 0.000000 92789.718845 142029.528234 0.000000 0.000000 0.000000 0.000000 0.000000 0.000000 0.000000 31068.022661 118627.675821 113147.378366 5065.365531 9121.051934 0.000000 38718.767111 0.000000 100819.255065 0.000000 0.000000 0.000000 0.000000 0.000000 0.000000 0.000000 0.000000 0.000000 0.000000 0.000000 0.000000 0.000000 0.000000 0.000000 0.000000 0.000000 0.000000 0.000000 0.000000 0.000000 0.000000 20324.092027 0.000000 39647.737669 181894.246992 0.000000 9057.733555 56054.883843 262963.162513 236604.255755 111374.198181 0.000000 0.000000 0.000000 0.000000 0.000000 10336.380877 7491.987184 53422.703571 0.000000 0.000000 0.000000 105645.572041 152902.560206 0.000000 184097.105517 0.000000 0.000000 0.000000 0.000000 0.000000 0.000000 103494.867708 134993.218736 0.000000 0.000000 2407.199294 0.000000 0.000000 0.000000 44204.970974 0.000000 0.000000 3125.644309 0.000000 0.000000 19131.414591 0.000000 52606.613680 0.000000 0.000000 0.000000 0.000000 0.000000 45536.762472 0.000000 0.000000 0.000000 0.000000 0.000000 0.000000 0.000000 0.000000 0.000000 0.000000 0.000000 0.000000 0.000000 25501.202941 0.000000 199015.200313 0.000000 0.000000 0.000000 25111.745007 0.000000 200659.063613 0.000000 50943.869941 0.000000 148883.799793 103741.607132 0.000000 0.000000 0.000000 0.000000 0.000000 0.000000 0.000000 0.000000 0.000000 0.000000 0.000000 0.000000 0.000000 0.000000 0.000000 0.000000 0.000000 0.000000 0.000000 31695.378075 199218.248177 0.000000 0.000000 0.000000 0.000000 0.000000 16311.290096 17177.519882 8530.043719 0.000000 0.000000 0.000000 89012.211364 13691.160447 0.000000 0.000000 0.000000 0.000000 0.000000 147701.421770 0.000000 0.000000 0.000000 0.000000 0.000000 118612.266074 0.000000 0.000000 0.000000 18273.605628 0.000000 0.000000 0.000000 68231.881780 0.000000 0.000000 0.000000 0.000000 105094.078761 64284.761107 128546.627916 0.000000 0.000000 0.000000 0.000000 0.000000 128168.694096 0.000000 0.000000 0.000000 0.000000 0.000000 20263.449921 68840.620509 306783.528135 72227.477495 0.000000 33592.945846 0.000000 0.000000 0.000000 93995.022052 0.000000 19664.791775 57762.843378 57684.025014 0.000000 54176.509962 0.000000 0.000000 141198.850012 189452.760414 0.000000 0.000000 303960.961510 0.000000 10666.748135 0.000000 119399.847541 312536.234881 0.000000 219816.121116 133235.393766 33086.383954 0.000000 0.000000 0.000000 0.000000 0.000000 0.000000 0.000000 0.000000 0.000000 0.000000 0.000000 0.000000 0.000000 0.000000 10591.403231 18525.380491 0.000000 166521.844966 0.000000 95954.689263 0.000000 0.000000 0.000000 0.000000 0.000000 0.000000 0.000000 0.000000 115517.406701 154722.303371 0.000000 0.000000 0.000000 0.000000 0.000000 0.000000 0.000000 123178.285669 0.000000 67257.664049 0.000000 0.000000 0.000000 0.000000 0.000000 0.000000 115085.120331 66764.675859 5219.114768 0.000000 8506.993617 0.000000 78516.373817 0.000000 0.000000 0.000000 0.000000 0.000000 0.000000 0.000000 7008.305566 12693.546197 0.000000 0.000000 0.000000 0.000000 0.000000 0.000000 0.000000 377366.619513 253031.336027 0.000000 0.000000 0.000000 0.000000 127344.176135 0.000000 40939.373592 171606.117085 0.000000 0.000000 0.000000 0.000000 0.000000 237092.092960 0.000000 0.000000 52945.911235 0.000000 32893.933932 11638.816034 0.000000 0.000000 143545.768823 0.000000 26873.025355 0.000000 0.000000 0.000000 0.000000 0.000000 0.000000 0.000000 0.000000 0.000000 0.000000 1791.316599 22036.796454 0.000000 53113.683434 156031.834014 0.000000 0.000000 4313.663145 0.000000 0.000000 242435.497395 0.000000 0.000000 25477.189326 41727.628939 96556.569432 68884.104807 0.000000 161467.465976 27689.713855 228469.836497 24282.286758 0.000000 0.000000 0.000000 0.000000 0.000000 0.000000 0.000000 0.000000 112024.563164 186652.065485 41974.139798 0.000000 0.000000 114414.207760 0.000000 0.000000 0.000000 107814.253368 0.000000 0.000000 0.000000 0.000000 0.000000 0.000000 1258.366673 430.102481 0.000000 61573.438779 0.000000 0.000000 3642.720186 0.000000 86624.711932 15486.708510 0.000000 107506.933001 0.000000 34783.584803 0.000000 0.000000 0.000000 0.000000 0.000000 0.000000 0.000000 0.000000 0.000000 0.000000 0.000000 0.000000 0.000000 0.000000 0.000000 0.000000 5393.987044 0.000000 66333.459604 28941.513754 0.000000 0.000000 0.000000 0.000000 0.000000 0.000000 0.000000 0.000000 0.000000 0.000000 0.000000 0.000000 0.000000 0.000000 46379.214111 0.000000 0.000000 87265.025159 24997.082958 0.000000 0.000000 181355.795618 0.000000 179501.089120 0.000000 0.000000 93691.321927 0.000000 0.000000 7525.001355 0.000000 81999.484834 0.000000 0.000000 0.000000 0.000000 0.000000 0.000000 0.000000 14014.906078 0.000000 0.000000 0.000000 113900.816007 0.000000 0.000000 0.000000 0.000000 47295.009632 0.000000 0.000000 0.000000 0.000000 0.000000 0.000000 0.000000 0.000000 0.000000 0.000000 0.000000 0.000000 26025.826657 0.000000 0.000000 0.000000 3964.361453 0.000000 58805.472463 0.000000 0.000000 0.000000 0.000000 68442.780053 0.000000 0.000000 0.000000 0.000000 0.000000 0.000000 0.000000 198017.438335 0.000000 0.000000 27253.555749 136877.616248 0.000000 0.000000 38819.839654 0.000000 0.000000 0.000000 46167.676052 0.000000 90349.894659 0.000000 0.000000 0.000000 0.000000 0.000000 0.000000 0.000000 0.000000 0.000000 0.000000 0.000000 0.000000 5273.506386 0.000000 185415.631638 0.000000 0.000000 0.000000 8226.124945 0.000000 0.000000 0.000000 47194.046514 0.000000 0.000000 150718.916857 0.000000 0.000000 85844.186548 119108.534482 0.000000 0.000000 0.000000 0.000000 29622.449922 0.000000 0.000000 0.000000 0.000000 18817.817179 0.000000 0.000000 0.000000 0.000000 0.000000 0.000000 0.000000 0.000000 0.000000 0.000000 0.000000 0.000000 0.000000 0.000000 0.000000 0.000000 3261.455326 0.000000 0.000000 0.000000 0.000000 0.000000 0.000000 0.000000 0.000000 0.000000 79280.398492 42576.216251 0.000000 0.000000 41378.433002 0.000000 0.000000 0.000000 0.000000 53814.245450 0.000000 45386.382429 0.000000 0.000000 7334.311007 0.000000 0.000000 0.000000 0.000000 51714.629154 156797.933629 0.000000 11658.030106 0.000000 119533.787190 0.000000 0.000000 113752.263728 0.000000 0.000000 0.000000 0.000000 0.000000 0.000000 0.000000 0.000000 2189.351275 0.000000 0.000000 0.000000 0.000000 0.000000 0.000000 16459.980186 57290.814133 0.000000 0.000000 0.000000 0.000000 0.000000 8374.749223 36051.324351 0.000000 0.000000 0.000000 0.000000 0.000000 470.595928 4369.472192 0.000000 0.000000 0.000000 0.000000 0.000000 7735.327978 25906.976614 0.000000 0.000000 0.000000 0.000000 0.000000 14466.566833 16364.837910 0.000000 0.000000 0.000000 0.000000 0.000000 11172.735089 0.000000 0.000000 0.000000 0.000000 0.000000 0.000000 0.000000 0.000000 0.000000 0.000000 0.000000 0.000000 0.000000 5404.189916 0.000000 0.000000 0.000000 0.000000 0.000000 0.000000 40859.635709 135495.576531 0.000000 0.000000 0.000000 0.000000 0.000000 28968.583944 79981.301079 0.000000 0.000000 0.000000 0.000000 0.000000 5160.092999 0.000000 0.000000 0.000000 0.000000 0.000000 0.000000 7199.957128 8929.838031 0.000000 0.000000 0.000000 0.000000 0.000000 21161.699561 61231.505192 0.000000 0.000000 0.000000 0.000000 0.000000 52142.602533 167482.722908 0.000000 0.000000 0.000000 0.000000 0.000000 25934.595124 105593.485876 0.000000 0.000000 0.000000 0.000000 0.000000 24525.155800 103338.757782 0.000000 0.000000 0.000000 0.000000 0.000000 50605.441539 271989.814754 0.000000 0.000000 0.000000 0.000000 0.000000 10906.212953 25980.976502 0.000000 0.000000 0.000000 0.000000 0.000000 7552.975512 0.000000 0.000000 0.000000 0.000000 0.000000 0.000000 30292.629540 35780.524674 0.000000 0.000000 0.000000 0.000000 0.000000 11163.078336 0.000000 0.000000 0.000000 0.000000 0.000000 0.000000 22059.697067 91844.803291 0.000000 0.000000 0.000000 0.000000 0.000000 41088.567583 237316.136421 0.000000 0.000000 0.000000 0.000000 0.000000 6883.329842 12878.035247 0.000000 0.000000 0.000000 0.000000 0.000000 3653.577755 0.000000 0.000000 0.000000 0.000000 0.000000 0.000000 35845.534632 140306.557596 0.000000 0.000000 0.000000 0.000000 0.000000 32808.731411 152276.311685 0.000000 0.000000 0.000000 0.000000 0.000000 1970.156782 0.000000 0.000000 0.000000 0.000000 0.000000 0.000000 920.631066 0.000000 0.000000 0.000000 0.000000 0.000000 0.000000 23211.943540 181241.425230 0.000000 0.000000 0.000000 0.000000 0.000000 13351.114490 55619.831601 0.000000 0.000000 0.000000 0.000000 0.000000 2277.616396 0.000000 0.000000 0.000000 0.000000 0.000000 0.000000 32775.332695 11353.155298 0.000000 0.000000 0.000000 0.000000 0.000000 39036.019512 79918.770155 0.000000 0.000000 0.000000 0.000000 0.000000 24027.700971 134147.683663 0.000000 0.000000 0.000000 0.000000 0.000000 25039.061443 78685.509461 0.000000 0.000000 0.000000 0.000000 0.000000 20745.542387 3433.068934 0.000000 0.000000 0.000000 0.000000 0.000000 3928.993770 0.000000 0.000000 0.000000 0.000000 0.000000 0.000000 19340.571393 33875.543043 0.000000 0.000000 0.000000 0.000000 0.000000 17623.959868 32213.895593 0.000000 0.000000 0.000000 0.000000 0.000000 14636.006875 8676.518997 0.000000 0.000000 0.000000 0.000000 0.000000 43542.772481 45463.717455 0.000000 0.000000 0.000000 0.000000 0.000000 66419.332970 149488.468963 0.000000 0.000000 0.000000 0.000000 0.000000 34425.136630 133673.326831 0.000000 0.000000 0.000000 0.000000 0.000000 28867.696615 68026.483560 0.000000 0.000000 0.000000 0.000000 0.000000 33003.473245 60862.970138 0.000000 0.000000 0.000000 0.000000 0.000000 19468.121441 73651.414990 0.000000 0.000000 0.000000 0.000000 0.000000 19354.868134 167500.127128 0.000000 0.000000 0.000000 0.000000 0.000000 14436.611120 147819.142660 0.000000 0.000000 0.000000 0.000000 0.000000 0.000000 0.000000 0.000000 0.000000 0.000000 0.000000 0.000000 1186.750570 0.000000 0.000000 0.000000 0.000000 0.000000 0.000000 1584.447728 30834.351264 0.000000 0.000000 0.000000 0.000000 0.000000 7466.310982 69372.449028 0.000000 0.000000 0.000000 0.000000 0.000000 15701.377583 94812.238006 0.000000 0.000000 0.000000 0.000000 0.000000 7142.149895 10593.184796 0.000000 0.000000 0.000000 0.000000 0.000000 27026.895587 38075.668825 0.000000 0.000000 0.000000 0.000000 0.000000 42621.711245 72713.541071 0.000000 0.000000 0.000000 0.000000 0.000000 35247.483600 109265.219962 0.000000 0.000000 0.000000 0.000000 0.000000 22935.940088 122236.760368 0.000000 0.000000 0.000000 0.000000 0.000000 9673.597335 34652.045935 0.000000 0.000000 0.000000 0.000000 0.000000 31164.328545 120558.542000 0.000000 0.000000 0.000000 0.000000 0.000000 21651.346560 59254.241231 0.000000 0.000000 0.000000 0.000000 0.000000 58399.148774 156809.682158 0.000000 0.000000 0.000000 0.000000 0.000000 46507.781411 89065.557692 0.000000 0.000000 0.000000 0.000000 0.000000 11394.811545 17977.925256 0.000000 0.000000 0.000000 0.000000 0.000000 9775.529504 62065.557884 0.000000 0.000000 0.000000 0.000000 0.000000 2150.965855 20163.689022 0.000000 0.000000 0.000000 0.000000 0.000000 5711.321143 17036.617148 0.000000 0.000000 0.000000 0.000000 0.000000 10959.313388 21896.688528 0.000000 0.000000 0.000000 0.000000 0.000000 4678.898761 0.000000 0.000000 0.000000 0.000000 0.000000 0.000000 10203.093748 19178.324179 0.000000 0.000000 0.000000 0.000000 0.000000 35852.491515 323080.754335 0.000000 0.000000 0.000000 0.000000 0.000000 30006.807631 224998.326438 0.000000 0.000000 0.000000 0.000000 0.000000 8172.658074 0.000000 0.000000 0.000000 0.000000 0.000000 0.000000 31146.024149 11788.870902 0.000000 0.000000 0.000000 0.000000 0.000000 60448.444061 154738.941884 0.000000 0.000000 0.000000 0.000000 0.000000 31784.089298 142082.695847 0.000000 0.000000 0.000000 0.000000 0.000000 41574.640165 204679.921640 0.000000 0.000000 0.000000 0.000000 0.000000 51457.734356 211578.207341 0.000000 0.000000 0.000000 0.000000 0.000000 16508.796160 28335.641357 0.000000 0.000000 0.000000 0.000000 0.000000 449.046261 0.000000 0.000000 0.000000 0.000000 0.000000 0.000000 0.000000 0.000000 0.000000 0.000000 0.000000 0.000000 0.000000 0.000000 0.000000 0.000000 0.000000 0.000000 0.000000 0.000000 0.000000 0.000000 0.000000 0.000000 0.000000 0.000000 0.000000 0.000000 0.000000 0.000000 0.000000 0.000000 0.000000 0.000000 0.000000 0.000000 0.000000 0.000000 0.000000 0.000000 0.000000 0.000000 0.000000 0.000000 0.000000 0.000000 0.000000 0.000000 0.000000 0.000000 0.000000 0.000000 0.000000 0.000000 0.000000 0.000000 0.000000 0.000000 0.000000 0.000000 0.000000 0.000000 0.000000 0.000000 0.000000 0.000000 0.000000 0.000000 0.000000 0.000000 0.000000 0.000000 0.000000 0.000000 0.000000 0.000000 0.000000 0.000000 0.000000 0.000000 0.000000 0.000000 0.000000 0.000000 0.000000 0.000000 0.000000 0.000000 0.000000 0.000000 0.000000 0.000000 0.000000 0.000000 0.000000 0.000000 0.000000 0.000000 0.000000 0.000000 0.000000 0.000000 0.000000 0.000000 0.000000 0.000000 0.000000 0.000000 0.000000 0.000000 0.000000 0.000000 0.000000 0.000000 0.000000 0.000000 0.000000 0.000000 0.000000 0.000000 0.000000 0.000000 0.000000 0.000000 0.000000 0.000000 0.000000 0.000000 0.000000 0.000000 0.000000 0.000000 0.000000 0.000000 0.000000 0.000000 0.000000 0.000000 0.000000 0.000000 0.000000 0.000000 0.000000 0.000000 0.000000 0.000000 0.000000 0.000000 0.000000 0.000000 0.000000 0.000000 0.000000 0.000000 0.000000 0.000000 0.000000 0.000000 0.000000 0.000000 0.000000 0.000000 0.000000 0.000000 0.000000 0.000000 0.000000 0.000000
</DataArray>
<DataArray type="Float64" Name="Velocity" NumberOfComponents="3" format="ascii">