<VTKFile type="PolyData">
<PolyData>
<Piece NumberOfPoints="1840" NumberOfVerts="1840" NumberOfLines="0" NumberOfStrips="0" NumberOfPolys="0">
<PointData>
<DataArray type="Float64" Name="Pressure" format="ascii">
 0.000000 0.000000 0.000000 0.000000 0.000000 0.000000 0.000000 0.000000 0.000000 0.000000 0.000000 0.000000 0.000000 0.000000 0.000000 0.000000 0.000000 0.000000 0.000000 0.000000 0.000000 0.000000 0.000000 0.000000 0.000000 0.000000 0.000000 0.000000 0.000000 0.000000 0.000000 0.000000 0.000000 0.000000 0.000000 0.000000 0.000000 0.000000 0.000000 0.000000 0.000000 0.000000 0.000000 0.000000 0.000000 0.000000 0.000000 0.000000 0.000000 0.000000 0.000000 0.000000 0.000000 0.000000 0.000000 0.000000 0.000000 0.000000 0.000000 0.000000 0.000000 0.000000 0.000000 0.000000 0.000000 0.000000 0.000000 0.000000 0.000000 0.000000 0.000000 0.000000 0.000000 0.000000 0.000000 0.000000 0.000000 0.000000 0.000000 0.000000 0.000000 0.000000 0.000000 0.000000 0.000000 0.000000 0.000000 0.000000 0.000000 0.000000 0.000000 0.000000 0.000000 0.000000 0.000000 0.000000 0.000000 0.000000 0.000000 0.000000 0.000000 0.000000 0.000000 0.000000 0.000000 0.000000 0.000000 0.000000 0.000000 0.000000 0.000000 0.000000 0.000000 0.000000 0.000000 0.000000 0.000000 0.000000 0.000000 6165.343473 24269.112733 21872.580570 6212.835604 0.000000 0.000000 0.000000 0.000000 0.000000 0.000000 0.000000 0.000000 0.000000 0.000000 22636.282521 34954.374277 3216.737892 0.000000 0.000000 0.000000 0.000000 0.000000 0.000000 0.000000 0.000000 0.000000 0.000000 0.000000 0.000000 0.000000 0.000000 0.000000 0.000000 0.000000 0.000000 0.000000 0.000000 0.000000 0.000000 0.000000 0.000000 0.000000 0.000000 0.000000 0.000000 0.000000 0.000000 0.000000 0.000000 0.000000 0.000000 0.000000 0.000000 0.000000 1174.890187 7745.490065 12020.206301 20072.306608 49224.307043 39740.616009 0.000000 0.000000 0.000000 0.000000 0.000000 0.000000 0.000000 0.000000 0.000000 0.000000 0.000000 0.000000 1855.240680 0.000000 0.000000 0.000000 0.000000 0.000000 0.000000 0.000000 0.000000 0.000000 0.000000 0.000000 0.000000 0.000000 0.000000 0.000000 0.000000 0.000000 0.000000 0.000000 0.000000 0.000000 0.000000 0.000000 0.000000 0.000000 0.000000 0.000000 0.000000 0.000000 0.000000 0.000000 0.000000 0.000000 0.000000 0.000000 0.000000 0.000000 0.000000 4248.972386 26557.813919 54242.522387 10532.264707 0.000000 110073.718984 0.000000 34044.779643 0.000000 0.000000 3004.712130 0.000000 0.000000 0.000000 0.000000 13347.667593 0.000000 71241.090391 4614.815667 0.000000 58336.189180 0.000000 0.000000 105823.531528 0.000000 108094.606705 37551.722211 8689.823657 8584.493301 0.000000 91066.449060 0.000000 59740.730755 25512.223369 40871.601358 0.000000 25753.294200 0.000000 0.000000 145478.037570 93808.217849 0.000000 0.000000 0.000000 0.000000 0.000000 3718.592177 31654.266403 25887.359270 19460.398498 73018.689353 47914.871864 0.000000 0.000000 60067.218222 0.000000 41285.560421 103998.107302 0.000000 75517.827594 33301.963320 54371.956483 0.000000 37872.412375 43734.703045 0.000000 0.000000 63129.055966 81214.831789 16261.496468 28641.229471 20775.423922 0.000000 0.000000 31956.039252 37033.195733 44631.295174 0.000000 87910.380516 0.000000 52799.503645 81380.352256 21646.811705 0.000000 15120.198982 52540.982008 0.000000 0.000000 0.000000 0.000000 0.000000 0.000000 6943.759059 70858.710568 2229.930674 0.000000 0.000000 57093.355743 58263.283896 62795.636286 63079.260118 60830.377227 0.000000 0.000000 43693.776177 1792.840149 87248.650085 21227.391146 39349.745513 42286.826481 57467.070644 19223.269956 38322.825729 57209.469670 3351.693622 102028.103994 0.000000 0.000000 92348.601548 2802.919147 18126.864694 55888.812010 0.000000 45669.107713 71382.067007 0.000000 0.000000 47131.837968 21923.445026 6281.057233 68831.361573 10316.171639 128060.708611 0.000000 0.000000 0.000000 0.000000 0.000000 1950.485296 41528.401039 54065.623428 91389.008405 176594.715480 0.000000 23338.539737 17054.302325 38036.354355 0.000000 53193.600658 133146.801058 37158.089762 0.000000 97011.759010 42063.631679 85201.798196 58658.314726 52533.762190 0.000000 0.000000 22731.639641 29642.736179 20538.199665 103400.123780 51685.373966 80491.924973 0.000000 47790.221810 0.000000 0.000000 29598.933429 36716.830180 69431.128943 84161.337245 33145.092287 0.000000 0.000000 80757.121564 25138.777687 112680.413619 0.000000 0.000000 0.000000 0.000000 0.000000 7205.862126 46233.305169 39175.381073 66807.874626 0.000000 93747.787383 4705.770035 18837.536944 0.000000 0.000000 41879.245465 98739.698949 1604.754945 6201.798715 19949.802893 47208.050213 51249.357766 70078.776657 64272.314355 0.000000 0.000000 77195.437584 27927.763799 76591.353357 0.000000 0.000000 47388.644859 63834.494650 63653.615468 71641.828467 9588.989463 86290.402166 0.000000 0.000000 90484.151104 44833.432948 70501.012826 102817.864524 50755.322541 47728.310125 74560.803731 0.000000 0.000000 0.000000 0.000000 0.000000 19550.495934 103899.088771 108081.701073 0.000000 76794.936446 30079.038408 0.000000 19996.050334 56688.911831 15268.412081 0.000000 0.000000 89101.845754 23845.480931 20982.462832 23323.995749 37635.092570 40856.134792 76176.008021 49926.058670 0.000000 31265.134206 0.000000 79623.715070 12252.607006 40283.754571 18248.727600 0.000000 0.000000 19201.222262 32764.297355 0.000000 15473.790730 65562.197529 0.000000 21999.460553 44526.047697 34873.138455 35.494537 67348.301973 19221.947454 0.000000 0.000000 0.000000 0.000000 0.000000 7661.585763 55796.307174 69914.980069 32779.299287 40790.905021 25316.086937 0.000000 39515.819657 73196.473098 347.024326 12589.658232 81200.853280 25587.813640 131594.219399 28859.188098 87245.453948 0.000000 39506.596303 68321.244746 48863.022358 56681.340305 0.000000 4408.773922 65010.685620 0.000000 49790.422645 22495.244498 0.000000 29559.659335 40955.044499 0.000000 78156.854334 0.000000 15851.473164 38712.364627 679.890088 74412.341765 0.000000 40620.557964 0.000000 0.000000 0.000000 0.000000 0.000000 0.000000 0.000000 5051.794564 51935.249834 73778.098824 38487.002675 58171.358790 118860.783844 44758.116585 0.000000 35891.091272 44262.065275 0.000000 175210.436482 31151.429458 0.000000 0.000000 0.000000 20818.099996 73599.133959 47360.265156 23033.091725 48130.685521 0.000000 62385.511269 16466.393275 51810.628597 7635.057198 0.000000 0.000000 0.000000 49370.833194 5690.293890 43697.588444 14146.616215 614.424186 31582.868017 0.000000 25982.584456 15737.320891 15544.232173 8141.748984 32045.133129 0.000000 0.000000 0.000000 0.000000 0.000000 9682.445287 40204.276667 0.000000 0.000000 54787.045297 31936.615343 0.000000 76580.778938 140879.378187 126073.888900 0.000000 4354.816081 180800.013545 130539.238235 9632.286860 0.000000 1575.201461 31890.081815 0.000000 14239.041233 5786.735108 0.000000 32862.252279 28483.277799 56355.813964 0.000000 71799.701603 9945.393646 67166.561935 0.000000 71722.151334 47366.991520 0.000000 0.000000 0.000000 21600.590051 12713.158063 41259.565930 5683.728270 0.000000 29615.081507 0.000000 0.000000 0.000000 0.000000 0.000000 24831.342311 52105.739083 11569.683466 0.000000 26277.089309 176531.539912 0.000000 269017.238523 7758.501512 132112.360493 40248.541466 151948.832891 22952.888734 184.269492 0.000000 10336.954576 0.000000 147557.128090 223851.374990 84853.448375 131700.789577 18248.790178 0.000000 0.000000 54268.154786 0.000000 44557.808734 0.000000 0.000000 71650.332122 17590.093404 0.000000 0.000000 0.000000 9951.726040 0.000000 86212.242876 25229.796557 19385.913415 0.000000 7805.205136 0.000000 0.000000 0.000000 0.000000 0.000000 24181.219541 89102.277640 0.000000 0.000000 0.000000 0.000000 0.000000 0.000000 0.000000 0.000000 144867.785210 0.000000 0.000000 0.000000 14202.819548 81742.065391 95961.556415 26007.673346 0.000000 0.000000 0.000000 94170.709106 11216.290187 19714.081110 90827.025040 111410.458130 40332.034786 29640.024148 0.000000 0.000000 25047.383281 18276.142487 0.000000 86813.374812 21660.642342 0.000000 61685.509477 0.000000 0.000000 0.000000 0.000000 0.000000 0.000000 0.000000 0.000000 0.000000 16376.542766 57855.439907 0.000000 0.000000 0.000000 0.000000 0.000000 0.000000 0.000000 97516.719782 0.000000 0.000000 0.000000 185607.446762 0.000000 0.000000 19645.371892 0.000000 188537.274334 0.000000 0.000000 12887.329748 81078.189527 264389.518507 3334.616778 45895.000351 40825.379482 209453.683921 0.000000 0.000000 80361.091792 69722.087227 0.000000 0.000000 36134.064506 0.000000 6763.001317 0.000000 0.000000 22348.165140 0.000000 0.000000 0.000000 0.000000 0.000000 0.000000 37491.960689 79034.876130 0.000000 0.000000 0.000000 0.000000 0.000000 0.000000 13058.026947 32177.752522 0.000000 0.000000 0.000000 0.000000 0.000000 0.000000 0.000000 0.000000 268147.621297 0.000000 0.000000 0.000000 204373.683094 65531.793606 0.000000 0.000000 0.000000 372434.575631 94628.944463 0.000000 60113.476720 119912.233136 110967.581792 0.000000 0.000000 0.000000 0.000000 0.000000 5180.704286 38556.887500 0.000000 0.000000 0.000000 0.000000 0.000000 0.000000 41986.038533 98229.315666 0.000000 0.000000 0.000000 52941.651975 0.000000 0.000000 0.000000 0.000000 0.000000 0.000000 0.000000 0.000000 0.000000 0.000000 0.000000 0.000000 0.000000 0.000000 0.000000 309672.989295 0.000000 0.000000 0.000000 0.000000 0.000000 141169.529705 0.000000 0.000000 0.000000 0.000000 263962.216371 0.000000 223052.182137 0.000000 0.000000 4194.216150 835.624085 0.000000 14195.491108 0.000000 0.000000 0.000000 0.000000 0.000000 37513.845364 113104.405948 0.000000 0.000000 0.000000 0.000000 0.000000 0.000000 0.000000 0.000000 0.000000 0.000000 0.000000 0.000000 0.000000 0.000000 0.000000 0.000000 0.000000 0.000000 0.000000 0.000000 0.000000 54061.704610 0.000000 0.000000 0.000000 282905.848846 0.000000 0.000000 79569.287583 56221.441995 0.000000 20530.006592 123820.676600 23976.319347 0.000000 63039.360069 96227.776410 0.000000 29358.106010 0.000000 0.000000 0.000000 0.000000 0.000000 24024.514160 57791.789341 0.000000 0.000000 0.000000 0.000000 0.000000 0.000000 0.000000 0.000000 0.000000 0.000000 0.000000 0.000000 59641.094349 0.000000 0.000000 0.000000 0.000000 0.000000 0.000000 0.000000 0.000000 0.000000 0.000000 0.000000 0.000000 0.000000 0.000000 0.000000 0.000000 0.000000 0.000000 6190.827148 50700.816297 0.000000 0.000000 0.000000 46915.973634 0.000000 47852.562239 0.000000 0.000000 0.000000 0.000000 0.000000 14707.856932 65682.453148 0.000000 0.000000 0.000000 0.000000 0.000000 0.000000 0.000000 0.000000 0.000000 0.000000 0.000000 0.000000 0.000000 0.000000 0.000000 0.000000 0.000000 0.000000 0.000000 0.000000 0.000000 0.000000 0.000000 0.000000 0.000000 0.000000 0.000000 0.000000 0.000000 0.000000 0.000000 0.000000 0.000000 0.000000 296392.646631 100654.159551 0.000000 93969.086648 58593.754347 0.000000 0.000000 0.000000 0.000000 0.000000 7831.641205 36119.521571 0.000000 0.000000 0.000000 0.000000 220453.109118 220453.109118 0.000000 221542.508703 0.000000 0.000000 0.000000 0.000000 0.000000 0.000000 0.000000 0.000000 0.000000 0.000000 0.000000 0.000000 0.000000 0.000000 0.000000 0.000000 0.000000 0.000000 0.000000 0.000000 0.000000 0.000000 0.000000 0.000000 0.000000 0.000000 0.000000 0.000000 303265.733328 96099.337714 0.000000 0.000000 0.000000 0.000000 0.000000 0.000000 10746.977291 24261.343568 282270.920820 0.000000 0.000000 0.000000 0.000000 0.000000 0.000000 0.000000 0.000000 0.000000 0.000000 0.000000 0.000000 0.000000 18432.333947 0.000000 0.000000 0.000000 0.000000 0.000000 0.000000 0.000000 0.000000 0.000000 0.000000 0.000000 0.000000 0.000000 0.000000 0.000000 0.000000 0.000000 0.000000 0.000000 54509.876578 0.000000 101478.188750 22076.955690 139112.482065 0.000000 0.000000 0.000000 0.000000 0.000000 45734.326024 87979.839954 0.000000 0.000000 0.000000 0.000000 0.000000 43443.920148 125757.450589 0.000000 0.000000 0.000000 0.000000 0.000000 15825.260172 63027.585648 0.000000 0.000000 0.000000 0.000000 0.000000 34891.353210 117063.402644 0.000000 0.000000 0.000000 0.000000 0.000000 49699.442373 227113.755873 0.000000 0.000000 0.000000 0.000000 0.000000 20010.341574 72287.162444 0.000000 0.000000 0.000000 0.000000 0.000000 35554.632211 140119.436716 0.000000 0.000000 0.000000 0.000000 0.000000 41433.581021 174551.891446 0.000000 0.000000 0.000000 0.000000 0.000000 48070.612710 114364.100945 0.000000 0.000000 0.000000 0.000000 0.000000 31835.034258 47802.802545 0.000000 0.000000 0.000000 0.000000 0.000000 9088.480281 22135.569413 0.000000 0.000000 0.000000 0.000000 0.000000 11310.066905 55472.209177 0.000000 0.000000 0.000000 0.000000 0.000000 14479.747384 100962.375030 0.000000 0.000000 0.000000 0.000000 0.000000 7584.127271 47076.330910 0.000000 0.000000 0.000000 0.000000 0.000000 5593.989729 33200.495431 0.000000 0.000000 0.000000 0.000000 0.000000 4999.875924 30961.244209 0.000000 0.000000 0.000000 0.000000 0.000000 6355.776227 31647.557477 0.000000 0.000000 0.000000 0.000000 0.000000 11109.729240 56787.802919 0.000000 0.000000 0.000000 0.000000 0.000000 28612.851669 99590.818651 0.000000 0.000000 0.000000 0.000000 0.000000 58214.153192 90520.353796 0.000000 0.000000 0.000000 0.000000 0.000000 27263.797366 41667.793384 0.000000 0.000000 0.000000 0.000000 0.000000 6914.833725 21252.951235 0.000000 0.000000 0.000000 0.000000 0.000000 28793.561288 84134.426850 0.000000 0.000000 0.000000 0.000000 0.000000 23860.074337 53516.061998 0.000000 0.000000 0.000000 0.000000 0.000000 20229.688965 37094.188830 0.000000 0.000000 0.000000 0.000000 0.000000 26727.972831 71824.640930 0.000000 0.000000 0.000000 0.000000 0.000000 18261.708357 79718.206121 0.000000 0.000000 0.000000 0.000000 0.000000 26184.280091 129291.192981 0.000000 0.000000 0.000000 0.000000 0.000000 37865.605453 137455.281676 0.000000 0.000000 0.000000 0.000000 0.000000 15629.512164 37155.837104 0.000000 0.000000 0.000000 0.000000 0.000000 4713.965225 19982.227880 0.000000 0.000000 0.000000 0.000000 0.000000 23315.436777 108118.858227 0.000000 0.000000 0.000000 0.000000 0.000000 16297.465557 37721.744744 0.000000 0.000000 0.000000 0.000000 0.000000 2028.188478 2762.678878 0.000000 0.000000 0.000000 0.000000 0.000000 8637.409494 53982.305276 0.000000 0.000000 0.000000 0.000000 0.000000 11946.670468 66818.452621 0.000000 0.000000 0.000000 0.000000 0.000000 19314.928437 90281.065563 0.000000 0.000000 0.000000 0.000000 0.000000 58779.870636 139696.405837 0.000000 0.000000 0.000000 0.000000 0.000000 49216.037737 105607.605010 0.000000 0.000000 0.000000 0.000000 0.000000 8375.557205 29471.729511 0.000000 0.000000 0.000000 0.000000 0.000000 3252.628735 3518.443500 0.000000 0.000000 0.000000 0.000000 0.000000 18596.627018 44961.965124 0.000000 0.000000 0.000000 0.000000 0.000000 35624.228770 85824.861654 0.000000 0.000000 0.000000 0.000000 0.000000 42971.361392 58330.302378 0.000000 0.000000 0.000000 0.000000 0.000000 8660.130425 0.000000 0.000000 0.000000 0.000000 0.000000 0.000000 5412.231130 27676.558315 0.000000 0.000000 0.000000 0.000000 0.000000 11981.869561 45897.137734 0.000000 0.000000 0.000000 0.000000 0.000000 22882.729938 75527.748743 0.000000 0.000000 0.000000 0.000000 0.000000 26719.098652 43200.702588 0.000000 0.000000 0.000000 0.000000 0.000000 62414.061558 83916.038336 0.000000 0.000000 0.000000 0.000000 0.000000 30626.830521 84503.523166 0.000000 0.000000 0.000000 0.000000 0.000000 13612.675805 78187.128606 0.000000 0.000000 0.000000 0.000000 0.000000 12965.599469 70894.464054 0.000000 0.000000 0.000000 0.000000 0.000000 19139.735285 78128.853902 0.000000 0.000000 0.000000 0.000000 0.000000 15647.718954 38929.131806 0.000000 0.000000 0.000000 0.000000 0.000000 31421.495033 86102.929310 0.000000 0.000000 0.000000 0.000000 0.000000 43261.027150 87303.136430 0.000000 0.000000 0.000000 0.000000 0.000000 14056.884719 13964.995798 0.000000 0.000000 0.000000 0.000000 0.000000 13361.648491 65949.849259 0.000000 0.000000 0.000000 0.000000 0.000000 13264.873801 68471.972880 0.000000 0.000000 0.000000 0.000000 0.000000 10645.152194 47699.745723 0.000000 0.000000 0.000000 0.000000 0.000000 5782.085847 61003.966029 0.000000 0.000000 0.000000 0.000000 0.000000 4826.865735 52960.925509 0.000000 0.000000 0.000000 0.000000 0.000000 16414.515096 98394.181497 0.000000 0.000000 0.000000 0.000000 0.000000 52029.164186 152628.615559 0.000000 0.000000 0.000000 0.000000 0.000000 45340.072317 60764.006397 0.000000 0.000000 0.000000 0.000000 0.000000 20178.618236 19487.506294 0.000000 0.000000 0.000000 0.000000 0.000000 35803.071863 77208.378476 0.000000 0.000000 0.000000 0.000000 0.000000 26286.199309 53758.224770 0.000000 0.000000 0.000000 0.000000 0.000000 17639.926154 36199.463590 0.000000 0.000000 0.000000 0.000000 0.000000 43848.571111 147473.117226 0.000000 0.000000 0.000000 0.000000 0.000000 72817.677168 271594.841258 0.000000 0.000000 0.000000 0.000000 0.000000 46730.586165 207438.932570 0.000000 0.000000 0.000000 0.000000 0.000000 27541.442563 132882.680302 0.000000 0.000000 0.000000 0.000000 0.000000 11249.298152 28301.351129 0.000000 0.000000 0.000000 0.000000 0.000000 17056.762236 82289.816260 0.000000 0.000000 0.000000 0.000000 0.000000 12324.301040 45017.941637 0.000000 0.000000 0.000000 0.000000 0.000000 7145.943682 0.000000 0.000000 0.000000 0.000000 0.000000 0.000000 58414.759384 116263.011324 0.000000 0.000000 0.000000 0.000000 0.000000 99139.870036 188238.310478 0.000000 0.000000 0.000000 0.000000 0.000000 32484.368945 4969.709017 0.000000 0.000000 0.000000 0.000000 0.000000 1554.211474 0.000000 0.000000 0.000000 27285.205023 15307.935525 8942.617790 4471.804344 22073.677515 49971.528472 4072.363029 0.000000 28279.846434 26568.372006 0.000000 702.063999 0.000000 0.000000 0.000000 0.000000 0.000000 0.000000 0.000000 0.000000 0.000000 0.000000 0.000000 0.000000 0.000000 0.000000 0.000000 0.000000 0.000000 0.000000 0.000000 0.000000 0.000000 0.000000 0.000000 0.000000 0.000000 0.000000 0.000000 0.000000 0.000000 0.000000 0.000000 0.000000 0.000000 0.000000 0.000000 0.000000 0.000000 0.000000 0.000000 0.000000 0.000000 0.000000 0.000000 0.000000 0.000000 0.000000 0.000000 0.000000 0.000000 0.000000 0.000000 0.000000 0.000000 0.000000 0.000000 0.000000 0.000000 0.000000 0.000000 0.000000 0.000000 0.000000 0.000000 0.000000 0.000000 0.000000 0.000000 0.000000 0.000000 0.000000 0.000000 0.000000 0.000000 0.000000 0.000000 0.000000 0.000000 0.000000 0.000000 0.000000 0.000000 0.000000 0.000000 0.000000 0.000000 0.000000 0.000000 0.000000 0.000000 0.000000 0.000000 0.000000 0.000000 0.000000 0.000000 0.000000 0.000000 0.000000 0.000000 0.000000 0.000000 0.000000 0.000000 0.000000 0.000000 0.000000 0.000000 0.000000 0.000000 0.000000 0.000000 0.000000 0.000000 0.000000 0.000000 0.000000 0.000000 0.000000 0.000000 0.000000 0.000000 0.000000 0.000000 0.000000 0.000000 0.000000 0.000000 0.000000 0.000000 0.000000 0.000000 0.000000 0.000000 0.000000 0.000000 0.000000 0.000000 0.000000 0.000000 0.000000 0.000000 0.000000 0.000000 0.000000 0.000000 0.000000 0.000000 0.000000 0.000000 0.000000 0.000000 0.000000 0.000000
</DataArray>
<DataArray type="Float64" Name="Velocity" NumberOfComponents="3" format="ascii">