<VTKFile type="PolyData">
<PolyData>
<Piece NumberOfPoints="1840" NumberOfVerts="1840" NumberOfLines="0" NumberOfStrips="0" NumberOfPolys="0">
<PointData>
<DataArray type="Float64" Name="Pressure" format="ascii">
 0.000000 0.000000 0.000000 0.000000 0.000000 0.000000 0.000000 0.000000 0.000000 0.000000 0.000000 0.000000 0.000000 0.000000 0.000000 0.000000 0.000000 0.000000 0.000000 0.000000 0.000000 0.000000 0.000000 0.000000 0.000000 0.000000 0.000000 0.000000 0.000000 0.000000 0.000000 0.000000 0.000000 0.000000 0.000000 0.000000 0.000000 0.000000 0.000000 0.000000 0.000000 0.000000 0.000000 0.000000 0.000000 0.000000 0.000000 0.000000 0.000000 0.000000 0.000000 0.000000 0.000000 0.000000 0.000000 0.000000 0.000000 0.000000 0.000000 0.000000 0.000000 0.000000 0.000000 0.000000 0.000000 0.000000 0.000000 0.000000 0.000000 0.000000 0.000000 0.000000 0.000000 0.000000 0.000000 0.000000 0.000000 0.000000 0.000000 0.000000 0.000000 0.000000 0.000000 0.000000 0.000000 0.000000 0.000000 0.000000 0.000000 0.000000 0.000000 0.000000 0.000000 0.000000 0.000000 0.000000 0.000000 0.000000 0.000000 0.000000 0.000000 0.000000 0.000000 0.000000 0.000000 0.000000 0.000000 0.000000 0.000000 0.000000 0.000000 0.000000 0.000000 0.000000 0.000000 0.000000 23821.219699 92124.496514 118421.286732 129269.416489 108511.559984 101095.069224 96038.520083 96990.878964 84120.019105 76057.559623 54690.959239 57437.913128 32543.598830 27939.844664 15466.125983 10245.446737 8453.549080 8137.923095 11786.851840 17407.916156 22033.075706 17655.029079 7103.672283 1704.188212 284.215597 0.000000 0.000000 0.000000 0.000000 0.000000 0.000000 0.000000 0.000000 0.000000 0.000000 0.000000 0.000000 0.000000 0.000000 0.000000 0.000000 0.000000 0.000000 0.000000 0.000000 0.000000 0.000000 0.000000 0.000000 0.000000 0.000000 0.000000 0.000000 0.000000 0.000000 0.000000 0.000000 93867.485555 452829.300082 468214.603912 474133.992192 435629.959798 403079.123856 374336.870925 461990.904805 424091.511140 292262.429979 241303.496014 301906.186092 268143.418489 239114.025678 160015.593917 148607.154535 151114.706198 124613.743389 123802.847162 169652.687222 280987.079387 290588.797056 119379.503888 30369.876786 6429.437720 0.000000 0.000000 0.000000 0.000000 0.000000 0.000000 0.000000 0.000000 0.000000 0.000000 0.000000 0.000000 0.000000 0.000000 0.000000 0.000000 0.000000 0.000000 0.000000 0.000000 0.000000 0.000000 0.000000 0.000000 0.000000 0.000000 0.000000 0.000000 0.000000 0.000000 0.000000 0.000000 114256.902571 495008.385988 452829.300082 352135.534823 461410.955293 391271.271985 462015.242165 393023.210259 408205.011800 300665.690316 381303.674703 474259.876111 268626.943931 310209.458719 296310.663650 293180.144186 310206.265482 311381.541775 366795.976105 336402.286293 311749.950033 203046.227007 200564.737281 282146.918516 381355.143643 361060.339046 232468.133849 122489.229514 114399.664464 210198.521097 388131.563844 494141.578055 444003.507815 253075.096513 89871.832044 24402.220000 5357.975826 0.000000 0.000000 0.000000 0.000000 0.000000 0.000000 0.000000 0.000000 0.000000 111738.612636 451618.588513 476787.976954 387209.560497 347403.760246 347430.400070 399247.419066 367649.723408 361027.202472 370282.893718 346481.505885 269899.711099 343325.000433 306448.688033 333989.755811 342183.869407 323686.692209 291078.771411 302659.963207 334214.333873 344085.919040 268164.600163 156111.859012 89466.643000 138660.398248 246928.811714 290385.972902 233221.388525 129392.277346 64439.240887 87045.927950 197134.251104 284580.672160 223879.172943 99859.494637 31399.679909 8781.423081 1131.691192 0.000000 62.361441 0.000000 0.000000 0.000000 0.000000 0.000000 0.000000 107675.810616 439089.011284 436351.873213 412142.981273 391069.796373 403488.980294 443512.389131 378359.979948 359363.700611 377033.687323 435303.998921 434836.881225 356139.623766 287140.399051 262867.131941 294518.298972 307961.668098 237291.748528 175007.635100 201304.060854 304970.750145 356404.068926 301920.963728 202911.109660 154576.562862 184631.451047 254360.601556 270443.923359 200092.113222 144553.081541 168524.533431 258096.824500 309604.911977 232967.717277 106542.506853 34807.936515 9903.863876 1449.142648 0.000000 0.000000 0.000000 0.000000 0.000000 0.000000 0.000000 0.000000 98761.047050 384008.493241 390664.926799 302727.235409 294877.667049 371604.853486 401096.397564 403683.618546 322327.596815 271070.152304 334803.989245 385226.734545 356931.087544 276402.344268 250618.861932 292860.990346 372801.648877 373632.116887 303627.283746 235972.502287 212140.191725 232386.187771 244419.774578 218654.877200 205557.998197 228259.083356 247062.253688 210397.725055 134724.475604 93238.608145 121641.386719 213062.336771 277178.466110 219280.899392 105117.811575 36206.946234 11231.537733 2673.982012 422.850501 0.000000 0.000000 0.000000 0.000000 0.000000 0.000000 0.000000 95849.187088 410113.377271 461901.592917 366897.401493 384916.483765 339231.252907 386034.017041 420276.519587 366538.789817 315985.437303 316757.703804 357699.135750 379539.739280 325218.223644 277026.688476 254263.277772 233583.412067 228390.359329 237220.264272 261176.323083 298250.251331 308015.357011 244774.798417 167112.095596 159639.694419 208815.204440 264351.030193 251150.843619 172110.470216 117964.705285 139267.519430 221549.989862 272411.898858 209734.314745 100287.644482 35045.855196 10952.613878 2619.602766 412.784854 0.000000 0.000000 0.000000 0.000000 0.000000 0.000000 0.000000 110057.603330 512474.161227 453508.165004 336822.906759 361806.753855 335701.502994 360978.219139 377162.357693 355946.266657 334747.595483 340612.357575 336184.997894 267533.018464 228812.764121 256584.386168 330249.945326 360545.005977 307431.309036 227829.986425 192764.436679 236698.775301 290927.988054 269796.086315 207379.836628 184586.849353 204017.725537 234392.138869 215909.049712 148812.460709 108613.761599 136083.818265 215216.364985 258134.730166 194943.381013 93141.322398 33335.680748 10825.265923 2747.979988 439.860156 0.000000 0.000000 0.000000 0.000000 0.000000 0.000000 0.000000 99964.620808 436848.447199 398881.671648 326167.844209 312791.868311 369290.839530 385193.108882 352136.282360 283280.719167 265900.257851 312964.819882 365299.569579 348923.487003 277103.544895 233306.628578 245711.670313 282825.055774 283696.493062 247550.747676 228817.790232 260601.687704 276492.796367 233247.244208 182579.031509 178637.903983 212345.099037 245833.253633 221461.126540 151784.969849 114638.705334 144089.106191 216754.837206 245835.139299 177932.447389 83617.361258 30247.848705 10072.340041 2842.198407 689.905649 0.000000 0.000000 0.000000 0.000000 0.000000 0.000000 0.000000 91162.499530 413063.957350 352075.314950 305770.808088 346530.405676 322700.398630 360211.288503 374386.007681 335807.359592 300052.199729 293708.007520 298671.032631 293084.722086 273849.319576 272673.188418 298129.051987 305711.522473 260110.248429 206478.191585 213041.841566 261565.095028 282813.489702 240572.818556 188427.112129 179368.907440 205658.241041 228957.919509 201715.743150 141045.841129 114418.760503 148805.516269 215344.977607 230560.112705 158964.334588 73240.197566 26780.962033 9046.788841 2580.518586 609.488991 0.000000 0.000000 0.000000 0.000000 0.000000 0.000000 0.000000 76650.890775 344171.713438 352365.590303 378158.606748 377658.696136 362950.029285 322268.485272 298190.757975 290171.851751 310000.600103 335979.214528 334707.729033 293760.780905 241845.199450 229268.926644 273973.077088 300658.726979 265808.321234 214563.202884 219382.545408 249830.268739 256831.882340 221286.978723 180456.780758 180550.253657 209819.658662 225455.655142 191802.387993 135802.719552 117698.372229 155539.234249 212649.844488 211966.920076 138063.178121 62280.785238 23093.682870 8075.557717 2510.981654 724.481353 0.000000 0.000000 0.000000 0.000000 0.000000 0.000000 0.000000 80338.948098 354489.711170 320399.117241 326221.321091 336393.413675 327535.061138 312545.766959 317338.295326 317540.539580 310153.209875 287671.677260 258659.041248 250554.146636 259805.156830 271414.732200 285024.757508 276574.683338 234047.158907 201462.526262 213382.992908 247533.245725 256704.601530 217914.146496 173611.427311 177653.123264 206507.968614 212447.235097 175046.008969 127874.673191 120407.271093 161323.459588 207094.326819 190843.972958 116886.973148 51553.310669 19248.025593 6804.007044 2131.349468 616.096763 0.000000 0.000000 0.000000 0.000000 0.000000 0.000000 0.000000 74710.898771 361754.888213 313609.739242 344067.750418 345058.592706 355864.768172 310073.632810 288746.097115 277973.426654 294535.171892 289935.412344 259373.609655 243700.839796 258105.827737 267834.520177 256711.465783 236732.950935 216658.051419 203344.848948 210232.939934 231720.213667 235453.410575 199600.709739 164473.634411 178608.033624 206566.690268 201299.357860 160125.677344 121830.703465 123951.777862 164763.258504 196147.882945 166247.493469 95955.512649 41702.311786 15832.568358 5782.440629 1928.016404 628.976054 0.000000 0.000000 0.000000 0.000000 0.000000 0.000000 0.000000 70228.385509 309513.310229 294169.323802 274335.535973 282371.363150 291028.080107 276770.278909 277966.355261 269538.579058 257078.428960 252309.064413 239928.226000 225417.665505 239691.306861 261317.950188 252961.325218 221172.838745 195995.176024 196448.424211 217327.351527 231478.775303 219745.096182 183137.721680 158869.681788 178317.509753 199605.330377 183358.495967 142782.654150 115957.248019 127434.823569 165192.537322 180423.471457 139910.399729 76201.321169 32685.919044 12526.410854 4632.905294 1551.159924 507.114447 0.000000 0.000000 0.000000 0.000000 0.000000 0.000000 0.000000 66163.889968 285136.400656 256671.943331 280528.452951 280135.602876 244822.406772 253260.160469 265160.631977 254628.291773 223737.529743 219641.556220 229649.609820 237732.821568 247705.461228 247109.180587 227571.747369 197866.889296 181315.450556 187566.678071 205722.982475 207343.158199 184003.942124 157883.807430 152399.332073 176817.137886 189566.654620 164276.515625 127083.381576 111698.635969 129710.119817 160259.887293 159294.896046 113200.357802 58770.158083 25138.763149 9820.698072 3738.592019 1290.806031 442.345282 0.000000 0.000000 0.000000 0.000000 0.000000 0.000000 0.000000 68297.684448 300309.240786 232278.785800 225430.804548 231391.251325 204902.014822 208284.854462 217512.802109 217605.331544 199382.347829 197750.752863 217335.414719 222947.218282 222466.667961 207637.745330 181029.942030 161921.930027 175687.122065 201151.981120 208844.766838 191516.942127 163916.298822 151039.601466 156908.234426 175531.199219 174045.317943 141973.365727 111689.204848 107485.499305 128674.001606 148525.827438 133469.376764 87089.250776 43380.674234 18493.506791 7285.327919 2794.090983 933.613558 302.452653 0.000000 0.000000 0.000000 0.000000 0.000000 0.000000 0.000000 69337.189800 298003.259768 206556.951562 168479.248864 182603.111390 170537.648593 147255.740606 178798.765394 182680.374888 177219.819011 181081.679754 184265.752732 172986.533379 166037.301013 158217.685418 159733.540477 159015.471128 163888.434525 173707.286781 164346.374799 137148.433462 120558.198991 128840.553316 143819.728923 154315.794200 143235.310593 113790.301338 95954.659870 102497.704362 123145.417830 130770.511863 106170.696366 64276.626255 31149.461152 13392.502295 5410.571197 2139.622678 692.735189 209.306681 0.000000 0.000000 0.000000 0.000000 0.000000 0.000000 0.000000 68017.104683 307250.915774 125397.190593 89901.438284 85148.389725 152539.319176 142566.972216 170377.976103 160661.381452 140925.056610 145072.138448 144060.214631 146521.241260 151348.240648 140065.916333 136076.401440 149354.243281 151739.013458 150968.966294 146702.765572 130272.256783 126468.278410 146115.686681 158268.634483 151104.835583 127432.493079 99544.079776 88939.924268 97544.945289 109975.147519 104754.579731 76683.230946 43440.575260 20539.526346 8779.382328 3498.841886 1292.129547 274.208901 8.404018 0.000000 0.000000 0.000000 0.000000 0.000000 0.000000 0.000000 71635.113197 295199.319022 103189.310122 51884.711253 51474.652190 89227.425717 88322.511305 61045.240099 75967.958515 75322.055622 88840.880683 83256.149561 84670.976404 83360.967424 90195.649199 96908.511931 90134.313868 84098.427979 73704.998199 69163.319552 79085.697380 84913.570669 96888.218865 101386.867156 88510.779677 70693.605730 58507.427919 60695.560440 73199.609278 81727.031987 73413.978455 50907.211580 28311.052571 13519.854688 5813.332405 2298.617494 843.563310 178.839510 18.770827 0.000000 0.000000 0.000000 0.000000 0.000000 0.000000 0.000000 57505.436348 276482.571059 37469.010025 0.000000 45119.015703 33524.433471 42245.018047 34003.544605 33510.893480 53770.548600 48374.236148 84669.993495 91472.361389 102181.362379 96046.796793 79685.872255 73209.269968 73706.245427 83163.326161 94094.610418 117664.876509 138382.879706 147277.645710 138090.604907 111837.349396 88930.940123 76832.192485 74003.471359 73765.650078 67628.297513 52189.344785 32621.244037 16485.767054 6346.630820 925.523794 0.000000 0.000000 0.000000 0.000000 0.000000 0.000000 0.000000 0.000000 0.000000 0.000000 0.000000 64766.320607 257572.927225 24009.341910 0.000000 0.000000 0.000000 5643.426484 40423.965472 0.000000 0.000000 0.000000 0.000000 4427.893534 0.000000 0.000000 0.000000 0.000000 0.000000 0.000000 0.000000 0.000000 89.447867 12458.435329 17420.554046 8972.447037 0.000000 0.000000 0.000000 0.000000 0.000000 0.000000 0.000000 0.000000 0.000000 0.000000 0.000000 0.000000 0.000000 0.000000 0.000000 0.000000 0.000000 0.000000 0.000000 0.000000 0.000000 54497.866377 225173.298036 0.000000 0.000000 0.000000 0.000000 0.000000 59556.668905 211423.961202 0.000000 0.000000 0.000000 0.000000 0.000000 51767.682844 205759.246658 0.000000 0.000000 0.000000 0.000000 0.000000 32216.985009 134056.060649 0.000000 0.000000 0.000000 0.000000 0.000000 67519.940872 206553.505255 0.000000 0.000000 0.000000 0.000000 0.000000 33580.850590 102853.769068 0.000000 0.000000 0.000000 0.000000 0.000000 51509.629619 112977.652391 0.000000 0.000000 0.000000 0.000000 0.000000 49414.300008 87683.941060 0.000000 0.000000 0.000000 0.000000 0.000000 34161.610634 77911.054496 0.000000 0.000000 0.000000 0.000000 0.000000 40169.008949 89123.417081 0.000000 0.000000 0.000000 0.000000 0.000000 7696.016589 4974.288717 0.000000 0.000000 0.000000 0.000000 0.000000 8429.901532 27179.500495 0.000000 0.000000 0.000000 0.000000 0.000000 3428.477565 24905.066866 0.000000 0.000000 0.000000 0.000000 0.000000 14960.893797 64775.257319 0.000000 0.000000 0.000000 0.000000 0.000000 37786.080524 52557.965997 0.000000 0.000000 0.000000 0.000000 0.000000 9197.788821 0.000000 0.000000 0.000000 0.000000 0.000000 0.000000 0.000000 0.000000 0.000000 0.000000 0.000000 0.000000 0.000000 0.000000 0.000000 0.000000 0.000000 0.000000 0.000000 0.000000 0.000000 0.000000 0.000000 0.000000 0.000000 0.000000 0.000000 0.000000 0.000000 0.000000 0.000000 0.000000 0.000000 0.000000 0.000000 0.000000 0.000000 0.000000 0.000000 0.000000 0.000000 0.000000 0.000000 0.000000 0.000000 0.000000 0.000000 0.000000 0.000000 0.000000 0.000000 0.000000 0.000000 0.000000 0.000000 0.000000 0.000000 0.000000 0.000000 0.000000 0.000000 0.000000 0.000000 0.000000 0.000000 0.000000 0.000000 0.000000 0.000000 0.000000 0.000000 0.000000 0.000000 0.000000 0.000000 0.000000 0.000000 0.000000 0.000000 0.000000 0.000000 0.000000 0.000000 0.000000 0.000000 0.000000 0.000000 0.000000 0.000000 0.000000 0.000000 0.000000 0.000000 0.000000 0.000000 0.000000 0.000000 0.000000 0.000000 0.000000 0.000000 0.000000 0.000000 0.000000 0.000000 0.000000 0.000000 0.000000 0.000000 0.000000 0.000000 0.000000 0.000000 0.000000 0.000000 0.000000 0.000000 0.000000 0.000000 0.000000 0.000000 0.000000 0.000000 0.000000 0.000000 0.000000 0.000000 0.000000 0.000000 0.000000 0.000000 0.000000 0.000000 0.000000 0.000000 0.000000 0.000000 0.000000 0.000000 0.000000 0.000000 0.000000 0.000000 0.000000 0.000000 0.000000 0.000000 0.000000 0.000000 0.000000 0.000000 0.000000 0.000000 0.000000 0.000000 0.000000 0.000000 0.000000 0.000000 0.000000 0.000000 0.000000 0.000000 0.000000 0.000000 0.000000 0.000000 0.000000 0.000000 0.000000 0.000000 0.000000 0.000000 0.000000 0.000000 0.000000 0.000000 0.000000 0.000000 0.000000 0.000000 0.000000 0.000000 0.000000 0.000000 0.000000 0.000000 0.000000 0.000000 0.000000 0.000000 0.000000 0.000000 0.000000 0.000000 0.000000 0.000000 0.000000 0.000000 0.000000 0.000000 0.000000 0.000000 0.000000 0.000000 0.000000 0.000000 0.000000 0.000000 0.000000 0.000000 0.000000 0.000000 0.000000 0.000000 0.000000 0.000000 0.000000 0.000000 0.000000 0.000000 0.000000 0.000000 0.000000 0.000000 0.000000 0.000000 0.000000 0.000000 0.000000 0.000000 0.000000 0.000000 0.000000 0.000000 0.000000 0.000000 0.000000 0.000000 0.000000 0.000000 0.000000 0.000000 0.000000 0.000000 0.000000 0.000000 0.000000 0.000000 0.000000 0.000000 0.000000 0.000000 0.000000 0.000000 0.000000 0.000000 0.000000 0.000000 0.000000 0.000000 0.000000 0.000000 0.000000 0.000000 0.000000 0.000000 0.000000 0.000000 0.000000 0.000000 0.000000 0.000000 0.000000 0.000000 0.000000 0.000000 0.000000 0.000000 0.000000 0.000000 0.000000 0.000000 0.000000 0.000000 0.000000 0.000000 0.000000 0.000000 0.000000 0.000000 0.000000 0.000000 0.000000 0.000000 0.000000 0.000000 0.000000 0.000000 0.000000 0.000000 0.000000 0.000000 0.000000 0.000000 0.000000 0.000000 0.000000 0.000000 0.000000 0.000000 0.000000 0.000000 0.000000 0.000000 0.000000 0.000000 0.000000 0.000000 0.000000 0.000000 0.000000 0.000000 0.000000 0.000000 0.000000 0.000000 0.000000 0.000000 0.000000 0.000000 0.000000 0.000000 0.000000 0.000000 0.000000 0.000000 0.000000 0.000000 0.000000 0.000000 0.000000 0.000000 0.000000 0.000000 0.000000 0.000000 0.000000 0.000000 0.000000 0.000000 0.000000 0.000000 0.000000 0.000000 0.000000 0.000000 0.000000 0.000000 0.000000 0.000000 0.000000 0.000000 0.000000 0.000000 0.000000 0.000000 0.000000 0.000000 0.000000 0.000000 0.000000 0.000000 0.000000 0.000000 0.000000 0.000000 0.000000 0.000000 0.000000 0.000000 0.000000 0.000000 0.000000 0.000000 0.000000 0.000000 0.000000 0.000000 0.000000 0.000000 0.000000 0.000000 0.000000 0.000000 0.000000 0.000000 0.000000 0.000000 0.000000 0.000000 0.000000 0.000000 0.000000 0.000000 0.000000 0.000000 0.000000 0.000000 0.000000 0.000000 0.000000 0.000000 0.000000 0.000000 0.000000 0.000000 0.000000 0.000000 0.000000 0.000000 0.000000 0.000000 0.000000 0.000000 0.000000 0.000000 0.000000 0.000000 0.000000 0.000000 0.000000 0.000000 0.000000 0.000000 0.000000 0.000000 0.000000 0.000000 0.000000 0.000000 0.000000 0.000000 0.000000 0.000000 0.000000 0.000000 0.000000 0.000000 0.000000 0.000000 0.000000 0.000000 0.000000 0.000000 0.000000 0.000000 0.000000 0.000000 0.000000 0.000000 0.000000 0.000000 0.000000 0.000000 0.000000 0.000000 0.000000 0.000000 0.000000 0.000000 0.000000 0.000000 0.000000 0.000000 0.000000 0.000000 0.000000 0.000000 0.000000 0.000000 0.000000 0.000000 0.000000 0.000000 0.000000 0.000000 0.000000 0.000000 0.000000 0.000000 0.000000 0.000000 0.000000 0.000000 0.000000 0.000000 0.000000 0.000000 0.000000 0.000000 0.000000 0.000000 0.000000 0.000000 0.000000 0.000000 0.000000 0.000000 0.000000 0.000000 0.000000 0.000000 0.000000 0.000000 0.000000 0.000000 0.000000 0.000000 0.000000 0.000000 0.000000 0.000000 0.000000 0.000000 0.000000 0.000000 0.000000 0.000000 0.000000 0.000000 0.000000 0.000000 0.000000 0.000000 0.000000 0.000000 0.000000 0.000000 0.000000 0.000000 0.000000 0.000000 0.000000 0.000000 0.000000 0.000000 0.000000 0.000000 0.000000 0.000000 0.000000 0.000000 0.000000 0.000000 0.000000 0.000000 0.000000 0.000000 0.000000 0.000000 0.000000 0.000000 0.000000 0.000000 0.000000 0.000000 0.000000 0.000000 0.000000 0.000000 0.000000 0.000000 0.000000 0.000000 0.000000 0.000000 0.000000 0.000000 0.000000 0.000000 0.000000 0.000000 0.000000 0.000000 0.000000 0.000000 0.000000 0.000000 0.000000 0.000000 0.000000 0.000000 0.000000 0.000000 0.000000 0.000000 0.000000 0.000000 0.000000 0.000000 0.000000 0.000000 0.000000 0.000000 0.000000 0.000000 0.000000 0.000000 0.000000 0.000000 0.000000 0.000000 0.000000 0.000000 0.000000 0.000000 0.000000 0.000000 0.000000 0.000000 0.000000 0.000000 0.000000 0.000000 0.000000 0.000000 0.000000 0.000000 0.000000
</DataArray>
<DataArray type="Float64" Name="Velocity" NumberOfComponents="3" format="ascii">