<VTKFile type="PolyData">
<PolyData>
<Piece NumberOfPoints="1840" NumberOfVerts="1840" NumberOfLines="0" NumberOfStrips="0" NumberOfPolys="0">
<PointData>
<DataArray type="Float64" Name="Pressure" format="ascii">
 0.000000 0.000000 0.000000 0.000000 0.000000 0.000000 0.000000 0.000000 0.000000 0.000000 0.000000 0.000000 0.000000 0.000000 0.000000 0.000000 0.000000 0.000000 0.000000 0.000000 0.000000 0.000000 0.000000 0.000000 0.000000 0.000000 0.000000 0.000000 0.000000 0.000000 0.000000 0.000000 0.000000 0.000000 0.000000 0.000000 0.000000 0.000000 0.000000 0.000000 0.000000 0.000000 0.000000 0.000000 0.000000 0.000000 0.000000 0.000000 0.000000 0.000000 0.000000 0.000000 0.000000 0.000000 0.000000 0.000000 0.000000 0.000000 0.000000 0.000000 0.000000 0.000000 0.000000 0.000000 0.000000 0.000000 0.000000 0.000000 0.000000 0.000000 0.000000 0.000000 0.000000 0.000000 0.000000 0.000000 0.000000 0.000000 0.000000 0.000000 0.000000 0.000000 0.000000 0.000000 0.000000 0.000000 0.000000 0.000000 0.000000 0.000000 0.000000 0.000000 0.000000 0.000000 0.000000 0.000000 0.000000 0.000000 0.000000 0.000000 0.000000 0.000000 0.000000 0.000000 0.000000 0.000000 0.000000 0.000000 0.000000 0.000000 0.000000 0.000000 0.000000 0.000000 0.000000 0.000000 0.000000 0.000000 6196.806032 13205.448197 7.241407 0.000000 0.000000 0.000000 0.000000 0.000000 0.000000 0.000000 0.000000 0.000000 0.000000 0.000000 0.000000 0.000000 0.000000 0.000000 0.000000 0.000000 0.000000 0.000000 0.000000 0.000000 0.000000 0.000000 0.000000 0.000000 0.000000 0.000000 0.000000 0.000000 0.000000 0.000000 0.000000 0.000000 0.000000 0.000000 0.000000 0.000000 0.000000 0.000000 0.000000 0.000000 0.000000 0.000000 0.000000 0.000000 0.000000 0.000000 0.000000 0.000000 0.000000 0.000000 0.000000 515.872168 0.000000 7223.235930 7691.076000 0.000000 0.000000 0.000000 0.000000 0.000000 0.000000 0.000000 0.000000 0.000000 0.000000 0.000000 0.000000 0.000000 0.000000 0.000000 0.000000 0.000000 0.000000 0.000000 0.000000 0.000000 0.000000 0.000000 0.000000 0.000000 0.000000 0.000000 0.000000 0.000000 0.000000 0.000000 0.000000 0.000000 0.000000 0.000000 0.000000 0.000000 0.000000 0.000000 0.000000 0.000000 0.000000 0.000000 0.000000 0.000000 0.000000 0.000000 0.000000 0.000000 0.000000 0.000000 0.000000 0.000000 6595.206860 15161.623481 17457.356672 0.000000 0.000000 0.000000 36506.408795 0.000000 31704.985721 0.000000 0.000000 0.000000 7847.063847 7757.916419 0.000000 0.000000 89674.024025 0.000000 0.000000 0.000000 67426.993059 63607.624034 1074.465773 22549.230055 77393.020346 39156.139174 0.000000 0.000000 41821.430991 40882.958320 56015.647848 32309.519803 8509.579452 0.000000 67489.967273 0.000000 0.000000 0.000000 100842.448011 0.000000 57551.787871 0.000000 0.000000 0.000000 0.000000 0.000000 6089.326976 34294.811680 51139.236994 0.000000 0.000000 46831.999246 0.000000 22753.710577 53719.125513 4648.464025 15244.793284 29609.878808 8499.839104 0.000000 0.000000 138469.376399 3484.565997 0.000000 0.000000 0.000000 0.000000 0.000000 917.755856 54658.555846 0.000000 0.000000 0.000000 0.000000 0.000000 0.000000 87970.282642 0.000000 135223.489017 103202.400083 0.000000 0.000000 0.000000 0.000000 69567.097719 0.000000 0.000000 0.000000 0.000000 0.000000 0.000000 0.000000 2277.716645 18078.991405 7962.361460 38145.992576 0.000000 16776.904666 2884.791546 0.000000 45796.063731 0.000000 16546.388094 0.000000 16346.673567 5262.960137 0.000000 0.000000 0.000000 28638.737343 230861.627705 144643.443551 5131.083635 91096.177244 35769.126824 3355.448995 0.000000 45368.664352 49881.858263 26877.038609 0.000000 15955.862904 0.000000 0.000000 12152.027564 0.000000 0.000000 122142.705931 9901.995520 0.000000 54391.827535 0.000000 0.000000 0.000000 0.000000 0.000000 0.000000 0.000000 0.000000 0.000000 0.000000 117736.981925 0.000000 17211.835065 0.000000 49632.654625 0.000000 0.000000 0.000000 39884.367760 14515.520194 0.000000 13661.741220 46005.045342 20536.153416 88071.463703 13261.316886 135650.946683 0.000000 42057.501306 123070.590530 0.000000 4522.262222 0.000000 0.000000 0.000000 0.000000 33449.695368 32598.645666 18879.689641 0.000000 6477.387641 0.000000 47494.036029 15608.519464 20066.688928 0.000000 0.000000 0.000000 0.000000 0.000000 0.000000 0.000000 0.000000 7040.257022 0.000000 0.000000 0.000000 0.000000 0.000000 483.989978 8576.175559 46218.669569 0.000000 184078.455065 26767.225060 62717.718271 19549.054042 70515.008866 220409.433416 0.000000 0.000000 0.000000 0.000000 0.000000 6901.779995 0.000000 7509.075086 123767.944314 0.000000 0.000000 42424.253436 0.000000 14813.193640 0.000000 5092.697113 143219.308151 0.000000 0.000000 0.000000 77978.840131 0.000000 0.000000 5534.930020 0.000000 0.000000 0.000000 0.000000 0.000000 0.000000 17791.336075 30837.594704 0.000000 0.000000 189040.089605 0.000000 286572.564360 41450.262127 0.000000 0.000000 0.000000 0.000000 0.000000 0.000000 22490.722782 14010.510550 249536.864456 0.000000 31416.904186 0.000000 152646.046092 39624.177341 0.000000 0.000000 48522.057944 0.000000 78231.257805 0.000000 122476.690560 0.000000 0.000000 0.000000 0.000000 23543.886331 0.000000 0.000000 0.000000 0.000000 0.000000 34121.839587 117822.509087 0.000000 0.000000 0.000000 0.000000 0.000000 34360.612168 62554.779642 3425.807174 0.000000 0.000000 0.000000 0.000000 0.000000 19128.267338 0.000000 0.000000 76603.712329 113065.252626 0.000000 0.000000 0.000000 13140.014047 10930.479474 0.000000 30745.322745 0.000000 0.000000 0.000000 0.000000 0.000000 0.000000 0.000000 79248.133293 30980.570683 0.000000 0.000000 92574.071563 71985.921004 0.000000 0.000000 6410.353331 66964.333403 0.000000 916.658110 103399.875966 0.000000 0.000000 0.000000 0.000000 0.000000 0.000000 42259.707435 134132.777465 126665.852302 0.000000 418704.941212 3726.654463 71789.298172 0.000000 293363.628056 0.000000 60206.548997 0.000000 8723.286500 169610.313763 0.000000 27005.615635 0.000000 197964.802848 0.000000 17673.572686 0.000000 0.000000 12233.355314 0.000000 0.000000 0.000000 0.000000 45095.430739 0.000000 24822.977820 28908.796641 0.000000 0.000000 0.000000 0.000000 24750.880077 0.000000 31578.916060 0.000000 0.000000 0.000000 0.000000 0.000000 0.000000 0.000000 0.000000 29775.873720 137881.029261 8131.547198 396864.413379 0.000000 158120.307841 194543.981864 90122.374813 0.000000 33059.061416 0.000000 0.000000 0.000000 0.000000 0.000000 0.000000 0.000000 12061.646237 0.000000 0.000000 419061.099347 18477.839254 44046.433947 0.000000 0.000000 0.000000 0.000000 0.000000 0.000000 35656.531370 0.000000 0.000000 0.000000 0.000000 0.000000 84152.942818 0.000000 29989.351949 0.000000 0.000000 0.000000 0.000000 0.000000 0.000000 0.000000 0.000000 12130.723051 83919.346625 0.000000 0.000000 127329.369299 0.000000 0.000000 65982.710439 0.000000 0.000000 0.000000 0.000000 0.000000 0.000000 0.000000 0.000000 0.000000 0.000000 0.000000 0.000000 266306.749150 0.000000 69489.301058 0.000000 62368.938251 0.000000 74257.314228 0.000000 0.000000 137229.448860 21506.543266 182945.071784 0.000000 10101.643612 0.000000 0.000000 22569.505999 166913.957451 9289.778844 37411.265912 0.000000 0.000000 0.000000 0.000000 0.000000 0.000000 7376.976146 55479.839163 0.000000 0.000000 0.000000 0.000000 0.000000 0.000000 0.000000 0.000000 0.000000 0.000000 0.000000 0.000000 0.000000 140973.096577 0.000000 0.000000 0.000000 0.000000 185460.541693 6422.254415 7426.840501 0.000000 58233.083756 126330.861102 0.000000 0.000000 12514.347762 0.000000 0.000000 75031.920634 155962.877256 0.000000 0.000000 0.000000 0.000000 0.000000 288528.320393 0.000000 58878.545431 0.000000 0.000000 0.000000 0.000000 0.000000 13544.068376 69098.655914 0.000000 7111.969487 0.000000 0.000000 0.000000 0.000000 0.000000 114676.518107 0.000000 0.000000 0.000000 6410.893971 0.000000 0.000000 70387.857892 0.000000 0.000000 0.000000 0.000000 123477.007274 235455.585017 0.000000 0.000000 97282.719335 320100.471153 0.000000 0.000000 0.000000 215820.772014 482659.960011 0.000000 0.000000 0.000000 0.000000 0.000000 0.000000 0.000000 93655.749219 10418.353692 0.000000 0.000000 0.000000 0.000000 0.000000 17854.369268 138701.654432 0.000000 249594.053389 0.000000 37124.819656 68073.561933 0.000000 212291.937962 0.000000 0.000000 0.000000 278803.303058 0.000000 161860.702840 0.000000 0.000000 0.000000 67384.734135 0.000000 101755.863431 0.000000 0.000000 0.000000 0.000000 0.000000 0.000000 0.000000 196199.108838 0.000000 0.000000 0.000000 0.000000 30400.902494 100173.757128 0.000000 0.000000 0.000000 160959.564311 57272.711654 0.000000 0.000000 0.000000 0.000000 0.000000 0.000000 23023.003848 97345.894528 0.000000 0.000000 0.000000 0.000000 0.000000 109674.629499 8243.399866 0.000000 0.000000 0.000000 0.000000 76962.544745 0.000000 0.000000 0.000000 0.000000 0.000000 0.000000 0.000000 0.000000 0.000000 0.000000 0.000000 0.000000 0.000000 0.000000 0.000000 0.000000 87923.383248 0.000000 0.000000 43785.160660 120042.891061 0.000000 0.000000 0.000000 0.000000 0.000000 4246.105535 0.000000 0.000000 0.000000 0.000000 0.000000 8207.530091 13455.070466 0.000000 0.000000 0.000000 0.000000 0.000000 120523.631865 0.000000 0.000000 0.000000 0.000000 0.000000 0.000000 0.000000 0.000000 0.000000 0.000000 114393.535291 0.000000 0.000000 109976.636796 0.000000 0.000000 0.000000 0.000000 0.000000 0.000000 0.000000 0.000000 0.000000 0.000000 20593.309374 0.000000 154056.371252 0.000000 0.000000 0.000000 117291.651822 179149.351700 0.000000 0.000000 0.000000 0.000000 0.000000 0.000000 4454.512627 14552.400378 0.000000 0.000000 22120.097765 0.000000 0.000000 0.000000 0.000000 0.000000 0.000000 0.000000 0.000000 0.000000 29761.208738 0.000000 0.000000 0.000000 0.000000 0.000000 0.000000 0.000000 0.000000 22390.152385 0.000000 0.000000 0.000000 509.812929 0.000000 0.000000 0.000000 0.000000 0.000000 0.000000 0.000000 50916.775175 0.000000 67363.602012 281080.948973 0.000000 39763.013112 0.000000 0.000000 0.000000 0.000000 0.000000 28258.964630 81602.285608 0.000000 0.000000 146128.420522 0.000000 122512.423156 0.000000 0.000000 0.000000 0.000000 0.000000 0.000000 0.000000 0.000000 54455.466079 0.000000 0.000000 0.000000 0.000000 0.000000 0.000000 0.000000 0.000000 0.000000 0.000000 0.000000 0.000000 0.000000 0.000000 0.000000 0.000000 0.000000 0.000000 0.000000 0.000000 481120.611725 15843.357696 0.000000 10733.796840 0.000000 0.000000 0.000000 0.000000 0.000000 0.000000 38181.696173 114400.116727 0.000000 0.000000 0.000000 0.000000 18804.217938 18804.217938 23887.495178 147529.594166 64265.126473 0.000000 631899.138178 85191.450539 0.000000 692764.868247 0.000000 0.000000 0.000000 0.000000 0.000000 0.000000 0.000000 0.000000 0.000000 0.000000 0.000000 0.000000 0.000000 0.000000 0.000000 0.000000 0.000000 0.000000 0.000000 341075.072164 0.000000 0.000000 636280.577514 539747.409441 0.000000 0.000000 0.000000 0.000000 0.000000 0.000000 11236.187966 5030.360580 62418.678250 599816.880071 0.000000 41190.749319 187710.564322 0.000000 0.000000 0.000000 0.000000 63185.197396 188429.869629 0.000000 114668.778534 341724.144929 0.000000 327326.162192 413879.608591 654844.084978 0.000000 176567.663868 0.000000 0.000000 0.000000 0.000000 0.000000 0.000000 0.000000 0.000000 0.000000 0.000000 0.000000 0.000000 0.000000 0.000000 0.000000 0.000000 0.000000 6896.967354 73461.505438 0.000000 0.000000 0.000000 0.000000 0.000000 29365.024044 49341.957265 0.000000 0.000000 0.000000 0.000000 0.000000 19724.733904 68995.742010 0.000000 0.000000 0.000000 0.000000 0.000000 16686.664899 46904.382759 0.000000 0.000000 0.000000 0.000000 0.000000 28228.983467 46617.303146 0.000000 0.000000 0.000000 0.000000 0.000000 19697.353063 41341.896721 0.000000 0.000000 0.000000 0.000000 0.000000 48925.492961 132500.731351 0.000000 0.000000 0.000000 0.000000 0.000000 33472.724567 105535.452343 0.000000 0.000000 0.000000 0.000000 0.000000 4489.526386 15346.832733 0.000000 0.000000 0.000000 0.000000 0.000000 10573.902574 30927.000142 0.000000 0.000000 0.000000 0.000000 0.000000 28330.005689 68639.080087 0.000000 0.000000 0.000000 0.000000 0.000000 50544.395478 90828.776898 0.000000 0.000000 0.000000 0.000000 0.000000 50950.579649 131262.462967 0.000000 0.000000 0.000000 0.000000 0.000000 19895.972304 90529.364856 0.000000 0.000000 0.000000 0.000000 0.000000 5846.453714 33373.091662 0.000000 0.000000 0.000000 0.000000 0.000000 1074.341281 15902.872897 0.000000 0.000000 0.000000 0.000000 0.000000 0.000000 0.000000 0.000000 0.000000 0.000000 0.000000 0.000000 4881.188651 0.000000 0.000000 0.000000 0.000000 0.000000 0.000000 26242.835137 39243.308825 0.000000 0.000000 0.000000 0.000000 0.000000 10730.967410 0.000000 0.000000 0.000000 0.000000 0.000000 0.000000 0.000000 0.000000 0.000000 0.000000 0.000000 0.000000 0.000000 8357.275203 2823.799711 0.000000 0.000000 0.000000 0.000000 0.000000 9985.526833 52886.594889 0.000000 0.000000 0.000000 0.000000 0.000000 0.000000 0.000000 0.000000 0.000000 0.000000 0.000000 0.000000 0.000000 0.000000 0.000000 0.000000 0.000000 0.000000 0.000000 0.000000 0.000000 0.000000 0.000000 0.000000 0.000000 0.000000 9460.485550 29865.067487 0.000000 0.000000 0.000000 0.000000 0.000000 18945.783981 87638.272765 0.000000 0.000000 0.000000 0.000000 0.000000 589.378936 0.000000 0.000000 0.000000 0.000000 0.000000 0.000000 1899.351933 10222.012901 0.000000 0.000000 0.000000 0.000000 0.000000 7346.623535 16415.303651 0.000000 0.000000 0.000000 0.000000 0.000000 7877.144022 0.000000 0.000000 0.000000 0.000000 0.000000 0.000000 14462.935193 0.000000 0.000000 0.000000 0.000000 0.000000 0.000000 1486.123274 0.000000 0.000000 0.000000 0.000000 0.000000 0.000000 0.000000 0.000000 0.000000 0.000000 0.000000 0.000000 0.000000 0.000000 0.000000 0.000000 0.000000 0.000000 0.000000 0.000000 0.000000 0.000000 0.000000 0.000000 0.000000 0.000000 0.000000 0.000000 0.000000 0.000000 0.000000 0.000000 0.000000 0.000000 7738.491269 0.000000 0.000000 0.000000 0.000000 0.000000 0.000000 10256.728040 23265.085020 0.000000 0.000000 0.000000 0.000000 0.000000 5377.707049 56675.180981 0.000000 0.000000 0.000000 0.000000 0.000000 9581.367386 120754.309044 0.000000 0.000000 0.000000 0.000000 0.000000 22976.253705 150962.349560 0.000000 0.000000 0.000000 0.000000 0.000000 32236.804549 73002.524804 0.000000 0.000000 0.000000 0.000000 0.000000 44149.392156 66292.967667 0.000000 0.000000 0.000000 0.000000 0.000000 42958.993442 66653.331218 0.000000 0.000000 0.000000 0.000000 0.000000 35105.164366 81008.596844 0.000000 0.000000 0.000000 0.000000 0.000000 36843.480102 128601.316111 0.000000 0.000000 0.000000 0.000000 0.000000 65023.616552 178305.495858 0.000000 0.000000 0.000000 0.000000 0.000000 19783.974612 28445.269938 0.000000 0.000000 0.000000 0.000000 0.000000 490.094042 0.000000 0.000000 0.000000 0.000000 0.000000 0.000000 0.000000 0.000000 0.000000 0.000000 0.000000 0.000000 0.000000 2189.067474 14749.660464 0.000000 0.000000 0.000000 0.000000 0.000000 6703.417691 98786.398031 0.000000 0.000000 0.000000 0.000000 0.000000 5711.924361 12332.480263 0.000000 0.000000 0.000000 0.000000 0.000000 0.000000 0.000000 0.000000 0.000000 0.000000 0.000000 0.000000 0.000000 0.000000 0.000000 0.000000 0.000000 0.000000 0.000000 0.000000 0.000000 0.000000 0.000000 0.000000 0.000000 0.000000 19633.550195 153416.400530 0.000000 0.000000 0.000000 0.000000 0.000000 52766.787865 499943.643436 0.000000 0.000000 0.000000 0.000000 0.000000 66229.386429 252980.978527 0.000000 0.000000 0.000000 0.000000 0.000000 63182.256098 121194.880424 0.000000 0.000000 0.000000 0.000000 0.000000 13783.048423 28134.892964 0.000000 0.000000 0.000000 0.000000 0.000000 0.000000 0.000000 0.000000 0.000000 0.000000 0.000000 0.000000 0.000000 0.000000 0.000000 0.000000 0.000000 0.000000 0.000000 3337.138524 0.000000 0.000000 0.000000 0.000000 0.000000 0.000000 0.000000 0.000000 0.000000 0.000000 0.000000 0.000000 0.000000 1275.958980 0.000000 0.000000 0.000000 0.000000 0.000000 0.000000 8669.526365 2331.198270 0.000000 0.000000 0.000000 0.000000 0.000000 0.000000 0.000000 0.000000 0.000000 0.000000 0.000000 0.000000 0.000000 0.000000 0.000000 0.000000 0.000000 0.000000 0.000000 4364.329346 72484.050352 0.000000 0.000000 0.000000 0.000000 0.000000 25228.433844 346739.604506 0.000000 0.000000 0.000000 0.000000 0.000000 69932.409163 640577.949251 0.000000 0.000000 0.000000 0.000000 0.000000 37792.843600 182360.493580 0.000000 0.000000 0.000000 0.000000 0.000000 59924.375166 269901.189076 0.000000 0.000000 0.000000 0.000000 0.000000 96006.961955 526699.710301 0.000000 0.000000 0.000000 0.000000 0.000000 33569.263357 134180.863546 0.000000 0.000000 0.000000 0.000000 0.000000 70641.537353 510582.573493 0.000000 0.000000 0.000000 0.000000 0.000000 49864.814109 363805.134130 0.000000 0.000000 0.000000 0.000000 0.000000 57905.602710 407263.882672 0.000000 0.000000 0.000000 0.000000 0.000000 69487.236876 473178.026436 0.000000 0.000000 0.000000 0.000000 0.000000 10648.183199 40980.115276 13362.050285 0.000000 0.000000 0.000000 5625.647073 0.000000 0.000000 0.000000 0.000000 0.000000 0.000000 23697.714967 54577.776198 0.000000 0.000000 0.000000 0.000000 0.000000 0.000000 0.000000 0.000000 0.000000 0.000000 0.000000 0.000000 0.000000 0.000000 0.000000 0.000000 0.000000 0.000000 0.000000 0.000000 0.000000 0.000000 0.000000 0.000000 0.000000 0.000000 0.000000 0.000000 0.000000 0.000000 0.000000 0.000000 0.000000 0.000000 0.000000 0.000000 0.000000 0.000000 0.000000 0.000000 0.000000 0.000000 0.000000 0.000000 0.000000 0.000000 0.000000 0.000000 0.000000 0.000000 0.000000 0.000000 0.000000 0.000000 0.000000 0.000000 0.000000 0.000000 0.000000 0.000000 0.000000 0.000000 0.000000 0.000000 0.000000 0.000000 0.000000 0.000000 0.000000 0.000000 0.000000 0.000000 0.000000 0.000000 0.000000 0.000000 0.000000 0.000000 0.000000 0.000000 0.000000 0.000000 0.000000 0.000000 0.000000 0.000000 0.000000 0.000000 0.000000 0.000000 0.000000 0.000000 0.000000 0.000000 0.000000 0.000000 0.000000 0.000000 0.000000 0.000000 0.000000 0.000000 0.000000 0.000000 0.000000 0.000000 0.000000 0.000000 0.000000 0.000000 0.000000 0.000000 0.000000 0.000000 0.000000 0.000000 0.000000 0.000000 0.000000 0.000000 0.000000 0.000000 0.000000 0.000000 0.000000 0.000000 0.000000 0.000000 0.000000 0.000000 0.000000 0.000000 0.000000 0.000000 0.000000 0.000000 0.000000 0.000000 0.000000 0.000000 0.000000 0.000000 0.000000 0.000000 0.000000 0.000000 0.000000 0.000000 0.000000 0.000000 0.000000 0.000000 0.000000 0.000000
</DataArray>
<DataArray type="Float64" Name="Velocity" NumberOfComponents="3" format="ascii">