<VTKFile type="PolyData">
<PolyData>
<Piece NumberOfPoints="1840" NumberOfVerts="1840" NumberOfLines="0" NumberOfStrips="0" NumberOfPolys="0">
<PointData>
<DataArray type="Float64" Name="Pressure" format="ascii">
 0.000000 0.000000 0.000000 0.000000 0.000000 0.000000 0.000000 0.000000 0.000000 0.000000 0.000000 0.000000 0.000000 0.000000 0.000000 0.000000 0.000000 0.000000 0.000000 0.000000 0.000000 0.000000 0.000000 0.000000 0.000000 0.000000 0.000000 0.000000 0.000000 0.000000 0.000000 0.000000 0.000000 0.000000 0.000000 0.000000 0.000000 0.000000 0.000000 0.000000 0.000000 0.000000 0.000000 0.000000 0.000000 0.000000 0.000000 0.000000 0.000000 0.000000 0.000000 0.000000 0.000000 0.000000 0.000000 0.000000 0.000000 0.000000 0.000000 0.000000 0.000000 0.000000 0.000000 0.000000 0.000000 0.000000 0.000000 0.000000 0.000000 0.000000 0.000000 0.000000 0.000000 0.000000 0.000000 0.000000 0.000000 0.000000 0.000000 0.000000 0.000000 0.000000 0.000000 0.000000 0.000000 0.000000 0.000000 0.000000 0.000000 0.000000 0.000000 0.000000 0.000000 0.000000 0.000000 0.000000 0.000000 0.000000 0.000000 0.000000 0.000000 0.000000 0.000000 0.000000 0.000000 0.000000 0.000000 0.000000 0.000000 0.000000 0.000000 0.000000 0.000000 0.000000 0.000000 0.000000 23868.237596 97841.481577 139647.820941 149177.446114 131020.945200 133150.123221 149990.811473 145360.086503 149072.752716 131313.547548 120066.940159 117947.610940 92435.648478 54646.254907 25357.648588 34312.149144 24597.143857 13692.446534 3222.516175 0.000000 0.000000 0.000000 0.000000 0.000000 0.000000 0.000000 0.000000 0.000000 0.000000 0.000000 0.000000 0.000000 0.000000 0.000000 0.000000 0.000000 0.000000 0.000000 0.000000 0.000000 0.000000 0.000000 0.000000 0.000000 0.000000 0.000000 0.000000 0.000000 0.000000 0.000000 0.000000 0.000000 0.000000 0.000000 0.000000 0.000000 0.000000 82858.151705 456756.217649 592982.481692 602855.529155 548324.575405 539114.128554 557873.346349 487340.900420 473661.155767 408789.265971 372044.617248 385342.259347 299513.815069 178278.938985 129948.146447 189648.795065 161600.405134 63981.228548 23101.678242 16981.829492 3979.126860 0.000000 0.000000 0.000000 0.000000 0.000000 0.000000 0.000000 0.000000 0.000000 0.000000 0.000000 0.000000 0.000000 0.000000 0.000000 0.000000 0.000000 0.000000 0.000000 0.000000 0.000000 0.000000 0.000000 0.000000 0.000000 0.000000 0.000000 0.000000 0.000000 0.000000 0.000000 0.000000 0.000000 0.000000 0.000000 0.000000 94434.298213 537242.100396 456756.217649 555017.464141 594292.541418 462675.617578 593103.658076 441132.342486 522007.296604 493811.331832 566438.584851 507826.247566 377489.680774 383336.794381 473903.352051 321347.772837 314686.358153 424341.223399 306378.900972 260118.490649 344474.350418 242617.542778 239841.306121 379386.691033 167799.853504 242988.720182 144871.494977 112889.357140 87184.736172 200986.409737 91578.500763 77164.042884 41260.708052 68959.124216 77639.605096 25229.881925 39163.960799 50675.648401 2280.879094 0.000000 0.000000 0.000000 0.000000 0.000000 0.000000 0.000000 87626.357240 491351.481681 542372.047516 410038.737494 498669.016824 378662.071677 513926.585127 419315.360493 476989.380993 435472.446217 421224.345550 434638.429999 421847.421674 309427.187859 333099.215024 350452.875520 438647.605853 437220.908698 349676.587980 313407.031782 180603.001876 274591.787922 319824.651661 281027.747979 121607.885468 167152.441897 172487.976105 230428.005267 144573.596395 73508.740838 86893.190978 118644.602797 105050.856165 50490.788363 37242.944293 83085.159997 28080.026706 5463.900856 20692.462049 0.000000 0.000000 0.000000 0.000000 0.000000 0.000000 0.000000 89398.655335 439201.539908 449941.629150 461803.393330 388413.295403 461599.144766 408429.997815 374127.193948 459791.084975 332797.101989 468615.902519 361035.647704 369065.695825 432978.879502 458288.445674 376276.529478 270061.301853 381766.668031 407666.730869 381100.163477 221098.497255 216245.167529 270700.541416 240155.596393 123003.163695 135707.124261 108523.958977 258283.804370 290324.246428 194367.047784 73155.595167 75274.880552 118819.914226 30845.152092 7812.195893 48116.994499 37272.068190 28763.213733 34084.833712 0.000000 0.000000 0.000000 0.000000 0.000000 0.000000 0.000000 88616.752462 456236.359519 509421.861391 475091.253973 502323.873016 385802.638290 422964.887696 460744.819249 440722.136908 415759.858286 335762.175989 407388.830053 509071.583309 466524.215446 338988.112955 246697.730278 254856.977342 324144.102399 348229.889991 309805.359704 253290.858418 197055.914256 259571.220198 274744.567894 267821.611161 200379.208018 175415.020124 182033.078680 189788.120549 145198.251857 80169.482352 87688.962615 156379.060405 121851.512229 44205.878191 46041.587358 31394.374515 36508.571481 42717.781634 0.000000 6022.169739 0.000000 0.000000 0.000000 0.000000 0.000000 103842.925396 500488.013804 478385.594026 473988.229655 475764.723482 495988.173533 449891.947128 462586.367618 432626.188256 418380.943820 385131.900456 352573.774002 380427.229669 382654.271811 406079.163346 392528.011808 342082.850503 334010.996363 375395.403139 366115.782687 330047.813491 284772.265745 240456.793211 234862.900716 203761.927185 186205.872409 170595.065229 141165.309716 118730.545621 143617.822636 142965.525425 123926.881186 94285.667383 25810.048022 24637.605163 71978.997920 37343.393644 32357.139281 33680.281648 0.000000 11560.242265 0.000000 0.000000 0.000000 0.000000 0.000000 101379.677096 506853.850666 548353.112246 482090.152996 485869.830891 447588.302288 502997.557922 440908.467194 469528.713000 485852.390495 498616.516871 504447.508803 445517.126058 345967.747747 355373.812451 356000.176040 425866.055745 425762.312512 339783.963315 276378.352518 226865.338478 269774.825972 319807.669643 283925.478464 175855.539754 121088.180699 180215.595482 255471.033429 236776.356178 133044.048568 59354.295344 107135.341281 150974.889354 91991.827703 20800.417860 54055.115406 40798.193307 48550.309115 47546.152770 0.000000 3611.107951 0.000000 0.000000 0.000000 0.000000 0.000000 97939.166417 500976.915379 460468.968120 422711.450192 472476.769017 464598.617276 446230.359016 557305.719535 500278.172930 270334.504859 284970.351753 393858.876947 326356.023523 392636.147864 412719.548251 343695.096664 307674.704954 316730.019190 350919.055770 352981.829243 282026.286330 198449.474488 185894.138299 224396.555113 240385.900043 215687.737005 198489.941617 165246.390647 148765.591666 146057.341834 121143.221983 108783.856905 84151.505963 46569.624684 41541.880441 77118.651938 37963.256166 35464.871991 40390.664175 0.000000 12130.321164 0.000000 0.000000 0.000000 0.000000 0.000000 97012.380241 459874.302867 511347.438386 462118.453885 550020.292007 439596.064355 286460.232347 427491.069692 301924.156415 361209.747106 424039.927638 377514.865430 361888.798573 300580.275841 307426.635307 421626.662017 449107.658533 383825.772407 293657.224257 220369.303235 246138.301690 291511.683136 297332.108814 231814.393865 166662.402861 146530.480523 222960.114616 263328.219258 191280.685628 92817.920076 85309.161828 138028.028701 143540.735277 68572.673177 34525.165488 64381.493413 37382.283965 40395.759213 40920.928446 0.000000 5355.704000 0.000000 0.000000 0.000000 0.000000 0.000000 111154.198891 530043.660737 462150.859192 444754.290361 317775.841569 636432.887685 461460.990761 491015.843643 444102.632591 394394.928215 414876.824186 331583.575931 422179.531708 449500.180323 413678.929534 369173.894368 330612.277121 315461.684401 315052.617078 326030.638862 308695.155963 251959.667945 212709.798966 229502.322564 249621.391342 242301.684815 212719.195386 177227.040014 153822.358987 132314.495383 136584.693597 132084.306655 97520.751863 53613.645167 54743.291452 74993.346216 33931.056769 31796.311324 38062.599451 0.000000 7309.707901 0.000000 0.000000 0.000000 0.000000 0.000000 117155.883921 542816.427248 538795.774963 360015.593043 330838.006380 284472.989292 380600.357502 297550.163076 376228.415626 341849.817166 385447.405389 358761.980133 310899.632937 380143.738204 392631.796291 363804.350338 326112.792912 276890.566704 269236.217664 256299.659825 264296.093130 286625.225682 278782.070877 225782.249074 201606.119805 220172.346323 248231.858898 229868.929138 163311.672517 110886.917190 132812.451541 153972.903387 116326.389276 54980.605360 58746.629767 73726.250824 37019.191348 29085.309595 32160.346748 0.000000 3774.607159 0.000000 0.000000 0.000000 0.000000 0.000000 111569.754817 474506.379292 306623.744221 398066.796120 346128.500567 421734.130437 381108.317388 393299.975712 331645.359060 299894.843767 293530.120891 369272.686131 295873.695189 368396.282348 359959.644256 328307.896032 327114.422269 331265.020756 331891.452229 328170.494436 314836.517124 275697.189452 244042.393641 239143.561247 260707.253705 254444.341443 220197.659348 162574.147928 141288.851255 140287.937701 158919.840061 148431.032352 98431.455566 55919.468107 75413.509011 78981.607900 36262.002530 25573.385373 30085.920489 0.000000 1775.593756 0.000000 0.000000 0.000000 0.000000 0.000000 116637.165642 456370.967786 276696.275251 361186.293163 235696.159649 328145.802262 209076.111584 277721.675015 306615.989004 306553.882464 325914.178887 298912.259907 297769.954433 274978.832542 268673.938674 290825.686086 344366.448142 347576.969373 319725.511015 282859.049300 258965.663842 242098.725225 240714.236863 225493.670445 201498.374280 193433.531727 199691.592321 178817.326111 161954.243893 157551.462450 158290.677429 152494.292432 107996.954113 70518.609889 85241.355011 80987.363341 40312.464582 24271.309696 24834.056250 0.000000 0.000000 0.000000 0.000000 0.000000 0.000000 0.000000 107593.227915 476429.399174 209888.716676 202621.670714 217202.503684 299745.396327 206362.890961 318867.362436 216237.311869 227584.880366 244372.185466 252060.167811 319548.507509 233835.532872 301023.495388 337425.466454 338334.920996 284693.115880 259660.182759 242332.650041 221465.963274 212231.056631 213069.451050 219420.814960 234485.388708 223786.081579 204308.428624 190051.975092 185183.628987 182658.831444 157357.073277 119873.072140 91190.812201 84915.342319 91926.323501 76659.973867 41451.311016 25205.760760 22328.704633 0.000000 0.000000 0.000000 0.000000 0.000000 0.000000 0.000000 101676.661309 473469.129836 178933.662909 144331.938203 172300.985648 185760.215614 151715.002011 137672.733237 215620.879606 154722.921748 226299.022840 179145.440453 236869.806598 192919.123928 200981.801182 244065.239102 251013.303765 251074.199730 235623.736306 222218.539066 211886.476997 224235.119834 231468.114151 227176.364580 223654.093913 203349.599468 193457.971212 181667.906120 165899.118772 147225.965196 139489.407776 126853.721170 116664.678335 114921.444471 106470.343486 79274.014947 49721.828478 27989.875576 17287.515475 0.000000 0.000000 0.000000 0.000000 0.000000 0.000000 0.000000 102282.953150 601336.115460 180767.564187 100643.319820 163327.623733 124246.552476 124066.242197 125850.763016 110890.138069 109380.861018 164933.754740 117302.445335 117596.022265 115005.416160 122438.501558 196277.758385 216093.297124 218626.756456 186591.477261 159597.777810 159018.805863 176223.992820 207679.122246 203928.936139 180372.039205 161366.858490 162673.125686 167176.000731 165662.817971 147293.915054 130456.098387 128926.180170 132411.301307 118119.385905 88781.939072 60991.510625 54130.812315 38559.768170 15524.784855 0.000000 0.000000 0.000000 0.000000 0.000000 0.000000 0.000000 97564.867089 560582.681576 110920.830486 41902.180147 49205.125156 55986.971774 72941.882504 83704.563677 50408.378692 80710.529371 91467.296253 84877.087476 82766.631685 73259.026700 81560.593241 113237.668421 144673.763207 141374.206087 98252.796592 88259.769924 119631.406889 171109.054061 187207.807094 167192.911262 148777.587091 140410.395034 146994.518199 139321.265423 124215.427415 117226.295296 109071.292785 104549.021835 110479.892129 122858.316715 110188.236575 81544.550270 75966.787309 62136.045992 23761.695505 0.000000 0.000000 0.000000 0.000000 0.000000 0.000000 0.000000 86735.015017 461238.930744 77075.134520 18696.156289 38638.571109 62303.122238 38479.889435 32102.804676 49992.724804 48683.762186 39255.866565 80225.938708 80591.823455 74022.338473 79752.283394 72300.831647 85721.933479 118456.593348 82166.537718 48377.206278 62002.885859 69337.438007 52104.232716 52874.838847 74576.603477 85555.751864 89872.716533 79410.358368 71707.708187 74602.228830 87030.908108 91365.743572 85308.923575 81360.931397 77376.189550 75225.370965 78149.290960 75611.420525 50614.793915 0.000000 0.000000 0.000000 0.000000 0.000000 0.000000 0.000000 100763.161444 431024.668275 46458.889165 0.000000 14697.710347 49613.446809 22053.297550 5822.906788 8489.184498 19296.671442 23125.607082 24803.157049 25881.248410 0.000000 30145.448466 0.000000 48226.205323 0.000000 38285.490107 0.000000 101048.584695 39678.696020 85138.046325 92654.607370 95158.067903 115621.328515 127487.475995 125655.142466 101662.115512 70814.223218 45650.886058 39370.979805 48784.564944 67307.311889 90278.416264 99019.410414 95252.390752 81963.522516 27446.974382 0.000000 0.000000 0.000000 0.000000 0.000000 0.000000 0.000000 94145.523156 302905.404403 17588.720443 11124.698357 2136.732723 15692.663336 0.000000 0.000000 0.000000 0.000000 0.000000 23711.226372 1290.916997 0.000000 5551.531938 44513.733523 11917.947194 14921.502992 33078.738029 35088.912816 26783.292764 10745.719855 0.000000 85.834236 3216.957591 5787.100933 8986.506711 16980.057440 8208.577426 3417.091213 0.000000 0.000000 0.000000 0.000000 0.000000 0.000000 0.000000 0.000000 16787.013902 0.000000 0.000000 0.000000 0.000000 0.000000 0.000000 0.000000 106813.313635 500966.741688 0.000000 0.000000 0.000000 0.000000 0.000000 83721.489942 471578.117520 0.000000 0.000000 0.000000 0.000000 0.000000 58379.265594 319058.638351 0.000000 0.000000 0.000000 0.000000 0.000000 74521.340883 346407.969694 0.000000 0.000000 0.000000 0.000000 0.000000 72286.339788 315394.431350 0.000000 0.000000 0.000000 0.000000 0.000000 92471.003114 313439.378453 0.000000 0.000000 0.000000 0.000000 0.000000 88451.559502 359913.860798 0.000000 0.000000 0.000000 0.000000 0.000000 70028.531138 306844.867023 0.000000 0.000000 0.000000 0.000000 0.000000 84292.577313 280092.364102 0.000000 0.000000 0.000000 0.000000 0.000000 71479.153024 241733.119058 0.000000 0.000000 0.000000 0.000000 0.000000 56517.918614 175207.991998 0.000000 0.000000 0.000000 0.000000 0.000000 74156.300125 210810.084137 0.000000 0.000000 0.000000 0.000000 0.000000 52968.704504 207436.839152 0.000000 0.000000 0.000000 0.000000 0.000000 61429.953448 186754.283834 0.000000 0.000000 0.000000 0.000000 0.000000 63756.892282 164160.177598 0.000000 0.000000 0.000000 0.000000 0.000000 40746.749877 160852.534771 0.000000 0.000000 0.000000 0.000000 0.000000 51797.766389 166385.749384 0.000000 0.000000 0.000000 0.000000 0.000000 38624.598743 96119.654526 0.000000 0.000000 0.000000 0.000000 0.000000 66889.639553 180479.298709 0.000000 0.000000 0.000000 0.000000 0.000000 38374.853865 91220.836695 0.000000 0.000000 0.000000 0.000000 0.000000 54449.418124 102349.112520 0.000000 0.000000 0.000000 0.000000 0.000000 55850.215130 92790.814263 0.000000 0.000000 0.000000 0.000000 0.000000 54426.061488 89650.043216 0.000000 0.000000 0.000000 0.000000 0.000000 28262.231461 56080.510190 0.000000 0.000000 0.000000 0.000000 0.000000 27205.287195 63365.701126 0.000000 0.000000 0.000000 0.000000 0.000000 31365.070676 51977.740663 0.000000 0.000000 0.000000 0.000000 0.000000 11993.144774 61576.515561 0.000000 0.000000 0.000000 0.000000 0.000000 24957.634916 132588.818830 0.000000 0.000000 0.000000 0.000000 0.000000 15756.734114 0.000000 0.000000 0.000000 0.000000 0.000000 0.000000 0.000000 0.000000 0.000000 0.000000 0.000000 0.000000 0.000000 0.000000 0.000000 0.000000 0.000000 0.000000 0.000000 0.000000 0.000000 0.000000 0.000000 0.000000 0.000000 0.000000 0.000000 0.000000 0.000000 0.000000 0.000000 0.000000 0.000000 0.000000 0.000000 0.000000 0.000000 0.000000 0.000000 0.000000 0.000000 0.000000 0.000000 0.000000 0.000000 0.000000 0.000000 0.000000 0.000000 0.000000 0.000000 0.000000 0.000000 0.000000 0.000000 0.000000 0.000000 0.000000 0.000000 0.000000 0.000000 0.000000 0.000000 0.000000 0.000000 0.000000 0.000000 0.000000 0.000000 0.000000 0.000000 0.000000 0.000000 0.000000 0.000000 0.000000 0.000000 0.000000 0.000000 0.000000 0.000000 0.000000 0.000000 0.000000 0.000000 0.000000 0.000000 0.000000 0.000000 0.000000 0.000000 0.000000 0.000000 0.000000 0.000000 0.000000 0.000000 0.000000 0.000000 0.000000 0.000000 0.000000 0.000000 0.000000 0.000000 0.000000 0.000000 0.000000 0.000000 0.000000 0.000000 0.000000 0.000000 0.000000 0.000000 0.000000 0.000000 0.000000 0.000000 0.000000 0.000000 0.000000 0.000000 0.000000 0.000000 0.000000 0.000000 0.000000 0.000000 0.000000 0.000000 0.000000 0.000000 0.000000 0.000000 0.000000 0.000000 0.000000 0.000000 0.000000 0.000000 0.000000 0.000000 0.000000 0.000000 0.000000 0.000000 0.000000 0.000000 0.000000 0.000000 0.000000 0.000000 0.000000 0.000000 0.000000 0.000000 0.000000 0.000000 0.000000 0.000000 0.000000 0.000000 0.000000 0.000000 0.000000 0.000000 0.000000 0.000000 0.000000 0.000000 0.000000 0.000000 0.000000 0.000000 0.000000 0.000000 0.000000 0.000000 0.000000 0.000000 0.000000 0.000000 0.000000 0.000000 0.000000 0.000000 0.000000 0.000000 0.000000 0.000000 0.000000 0.000000 0.000000 0.000000 0.000000 0.000000 0.000000 0.000000 0.000000 0.000000 0.000000 0.000000 0.000000 0.000000 0.000000 0.000000 0.000000 0.000000 0.000000 0.000000 0.000000 0.000000 0.000000 0.000000 0.000000 0.000000 0.000000 0.000000 0.000000 0.000000 0.000000 0.000000 0.000000 0.000000 0.000000 0.000000 0.000000 0.000000 0.000000 0.000000 0.000000 0.000000 0.000000 0.000000 0.000000 0.000000 0.000000 0.000000 0.000000 0.000000 0.000000 0.000000 0.000000 0.000000 0.000000 0.000000 0.000000 0.000000 0.000000 0.000000 0.000000 0.000000 0.000000 0.000000 0.000000 0.000000 0.000000 0.000000 0.000000 0.000000 0.000000 0.000000 0.000000 0.000000 0.000000 0.000000 0.000000 0.000000 0.000000 0.000000 0.000000 0.000000 0.000000 0.000000 0.000000 0.000000 0.000000 0.000000 0.000000 0.000000 0.000000 0.000000 0.000000 0.000000 0.000000 0.000000 0.000000 0.000000 0.000000 0.000000 0.000000 0.000000 0.000000 0.000000 0.000000 0.000000 0.000000 0.000000 0.000000 0.000000 0.000000 0.000000 0.000000 0.000000 0.000000 0.000000 0.000000 0.000000 0.000000 0.000000 0.000000 0.000000 0.000000 0.000000 0.000000 0.000000 0.000000 0.000000 0.000000 0.000000 0.000000 0.000000 0.000000 0.000000 0.000000 0.000000 0.000000 0.000000 0.000000 0.000000 0.000000 0.000000 0.000000 0.000000 0.000000 0.000000 0.000000 0.000000 0.000000 0.000000 0.000000 0.000000 0.000000 0.000000 0.000000 0.000000 0.000000 0.000000 0.000000 0.000000 0.000000 0.000000 0.000000 0.000000 0.000000 0.000000 0.000000 0.000000 0.000000 0.000000 0.000000 0.000000 0.000000 0.000000 0.000000 0.000000 0.000000 0.000000 0.000000 0.000000 0.000000 0.000000 0.000000 0.000000 0.000000 0.000000 0.000000 0.000000 0.000000 0.000000 0.000000 0.000000 0.000000 0.000000 0.000000 0.000000 0.000000 0.000000 0.000000 0.000000 0.000000 0.000000 0.000000 0.000000 0.000000 0.000000 0.000000 0.000000 0.000000 0.000000 0.000000 0.000000 0.000000 0.000000 0.000000 0.000000 0.000000 0.000000 0.000000 0.000000 0.000000 0.000000 0.000000 0.000000 0.000000 0.000000 0.000000 0.000000 0.000000 0.000000 0.000000 0.000000 0.000000 0.000000 0.000000 0.000000 0.000000 0.000000 0.000000 0.000000 0.000000 0.000000 0.000000 0.000000 0.000000 0.000000 0.000000 0.000000 0.000000 0.000000 0.000000 0.000000 0.000000 0.000000 0.000000 0.000000 0.000000 0.000000 0.000000 0.000000 0.000000 0.000000 0.000000 0.000000 0.000000 0.000000 0.000000 0.000000 0.000000 0.000000 0.000000 0.000000 0.000000 0.000000 0.000000 0.000000 0.000000 0.000000 0.000000 0.000000 0.000000 0.000000 0.000000 0.000000 0.000000 0.000000 0.000000 0.000000 0.000000 0.000000 0.000000 0.000000 0.000000 0.000000 0.000000 0.000000 0.000000 0.000000 0.000000 0.000000 0.000000 0.000000 0.000000 0.000000 0.000000 0.000000 0.000000 0.000000 0.000000 0.000000 0.000000 0.000000 0.000000 0.000000 0.000000 0.000000 0.000000 0.000000 0.000000 0.000000 0.000000 0.000000 0.000000 0.000000 0.000000 0.000000 0.000000 0.000000 0.000000 0.000000 0.000000 0.000000 0.000000 0.000000 0.000000 0.000000 0.000000 0.000000 0.000000 0.000000 0.000000 0.000000 0.000000 0.000000 0.000000 0.000000 0.000000 0.000000
</DataArray>
<DataArray type="Float64" Name="Velocity" NumberOfComponents="3" format="ascii">