<VTKFile type="PolyData">
<PolyData>
<Piece NumberOfPoints="1840" NumberOfVerts="1840" NumberOfLines="0" NumberOfStrips="0" NumberOfPolys="0">
<PointData>
<DataArray type="Float64" Name="Pressure" format="ascii">
 0.000000 0.000000 0.000000 0.000000 0.000000 0.000000 0.000000 0.000000 0.000000 0.000000 0.000000 0.000000 0.000000 0.000000 0.000000 0.000000 0.000000 0.000000 0.000000 0.000000 0.000000 0.000000 0.000000 0.000000 0.000000 0.000000 0.000000 0.000000 0.000000 0.000000 0.000000 0.000000 0.000000 0.000000 0.000000 0.000000 0.000000 0.000000 0.000000 0.000000 0.000000 0.000000 0.000000 0.000000 0.000000 0.000000 0.000000 0.000000 0.000000 0.000000 0.000000 0.000000 0.000000 0.000000 0.000000 0.000000 0.000000 0.000000 0.000000 0.000000 0.000000 0.000000 0.000000 0.000000 0.000000 0.000000 0.000000 0.000000 0.000000 0.000000 0.000000 0.000000 0.000000 0.000000 0.000000 0.000000 0.000000 0.000000 0.000000 0.000000 0.000000 0.000000 0.000000 0.000000 0.000000 0.000000 0.000000 0.000000 0.000000 0.000000 0.000000 0.000000 0.000000 0.000000 0.000000 0.000000 0.000000 0.000000 0.000000 0.000000 0.000000 0.000000 0.000000 0.000000 0.000000 0.000000 0.000000 0.000000 0.000000 0.000000 0.000000 0.000000 0.000000 0.000000 0.000000 0.000000 2172.087517 12476.957889 4971.281506 0.000000 0.000000 0.000000 0.000000 0.000000 5151.756432 27548.521492 26046.431676 14943.345944 4842.515202 0.000000 0.000000 0.000000 0.000000 0.000000 0.000000 0.000000 0.000000 0.000000 0.000000 0.000000 0.000000 0.000000 0.000000 0.000000 0.000000 0.000000 0.000000 0.000000 0.000000 0.000000 0.000000 0.000000 0.000000 0.000000 0.000000 0.000000 0.000000 0.000000 0.000000 0.000000 0.000000 0.000000 0.000000 0.000000 0.000000 0.000000 0.000000 0.000000 0.000000 0.000000 0.000000 0.000000 0.000000 22966.648748 87328.114364 0.000000 0.000000 0.000000 0.000000 0.000000 0.000000 0.000000 82348.606174 63711.228247 12805.280317 0.000000 0.000000 0.000000 0.000000 0.000000 0.000000 0.000000 0.000000 0.000000 0.000000 0.000000 0.000000 0.000000 0.000000 0.000000 0.000000 0.000000 0.000000 0.000000 0.000000 0.000000 0.000000 0.000000 0.000000 0.000000 0.000000 0.000000 0.000000 0.000000 0.000000 0.000000 0.000000 0.000000 0.000000 0.000000 0.000000 0.000000 0.000000 0.000000 0.000000 0.000000 0.000000 0.000000 0.000000 0.000000 24970.445149 50852.910856 31792.543821 0.000000 41271.245053 0.000000 0.000000 0.000000 0.000000 0.000000 0.000000 0.000000 242142.662639 182920.882333 160926.020547 0.000000 71233.582092 309956.509334 0.000000 262109.867624 0.000000 0.000000 33044.228658 0.000000 0.000000 0.000000 0.000000 29927.511604 15778.328193 0.000000 101088.155978 0.000000 206340.427668 0.000000 0.000000 151996.786058 0.000000 0.000000 15103.492646 0.000000 0.000000 0.000000 0.000000 0.000000 0.000000 0.000000 4224.351174 0.000000 0.000000 0.000000 75880.377626 0.000000 0.000000 0.000000 180166.891652 0.000000 0.000000 0.000000 0.000000 110263.056089 134848.833696 0.000000 68912.310392 702133.069830 25472.726236 0.000000 0.000000 47971.222012 0.000000 0.000000 508928.084140 0.000000 0.000000 123367.044556 0.000000 5326.567695 99691.122107 0.000000 0.000000 66338.106783 0.000000 49702.321695 115319.488740 0.000000 289168.466442 0.000000 0.000000 0.000000 0.000000 0.000000 0.000000 0.000000 2494.593666 0.000000 0.000000 0.000000 0.000000 26507.096679 0.000000 0.000000 0.000000 0.000000 0.000000 0.000000 0.000000 0.000000 25072.380879 27564.215068 0.000000 42242.347311 0.000000 166605.197367 0.000000 0.000000 0.000000 0.000000 50387.755504 0.000000 24774.085683 0.000000 83356.507410 50370.757341 0.000000 0.000000 0.000000 42084.399034 19670.233962 0.000000 166120.871164 0.000000 104961.378962 0.000000 0.000000 0.000000 0.000000 0.000000 0.000000 0.000000 8266.162337 15654.897338 0.000000 0.000000 57609.469211 63464.871308 0.000000 0.000000 0.000000 0.000000 0.000000 0.000000 0.000000 0.000000 5852.117915 0.000000 0.000000 20339.169485 0.000000 0.000000 0.000000 0.000000 0.000000 0.000000 74900.948999 0.000000 18763.452077 0.000000 0.000000 0.000000 0.000000 0.000000 0.000000 15461.943953 42210.761214 0.000000 0.000000 174706.600879 41234.374498 170931.525930 186677.939138 0.000000 0.000000 0.000000 0.000000 0.000000 70.115150 0.000000 0.000000 0.000000 0.000000 0.000000 92244.731005 0.000000 0.000000 0.000000 0.000000 0.000000 0.000000 0.000000 0.000000 40772.365672 144144.414989 120579.372028 87484.984159 0.000000 5847.078798 32772.146058 0.000000 0.000000 0.000000 0.000000 0.000000 0.000000 0.000000 0.000000 25766.657475 102301.553169 0.000000 5487.490838 99819.878525 319296.812028 0.000000 0.000000 42860.360659 0.000000 0.000000 0.000000 0.000000 0.000000 0.000000 0.000000 6181.439384 0.000000 0.000000 0.000000 235774.645103 95106.475876 0.000000 10980.550124 0.000000 0.000000 127701.933557 0.000000 0.000000 27910.445913 0.000000 0.000000 14877.026584 0.000000 0.000000 0.000000 193529.246697 0.000000 0.000000 0.000000 0.000000 0.000000 0.000000 0.000000 0.000000 0.000000 0.000000 0.000000 0.000000 0.000000 0.000000 0.000000 0.000000 0.000000 0.000000 183593.503582 0.000000 0.000000 0.000000 0.000000 0.000000 0.000000 14059.919334 34565.017559 83956.906843 0.000000 0.000000 0.000000 0.000000 345278.786519 163993.798393 0.000000 54049.343565 71579.310472 1164.311018 292219.359247 74011.104867 0.000000 0.000000 49593.651879 0.000000 0.000000 0.000000 0.000000 269991.618176 0.000000 14297.134959 0.000000 0.000000 0.000000 2752.817355 18648.555714 57093.871471 0.000000 31866.165321 0.000000 154352.778746 0.000000 0.000000 0.000000 33123.534142 92227.607982 167833.273740 0.000000 0.000000 0.000000 0.000000 0.000000 20824.255979 62375.186313 8512.619292 0.000000 0.000000 0.000000 350175.775515 0.000000 24200.024878 0.000000 0.000000 0.000000 0.000000 0.000000 5308.826906 0.000000 0.000000 0.000000 0.000000 95189.463097 0.000000 31155.764973 0.000000 327347.504737 0.000000 0.000000 0.000000 101048.739663 71693.949905 0.000000 506062.725975 0.000000 48695.422507 14371.664394 0.000000 0.000000 0.000000 85909.658977 0.000000 0.000000 104869.736362 0.000000 0.000000 0.000000 0.000000 0.000000 16311.493084 27128.346238 219841.192255 12996.425845 97401.615786 123238.852670 0.000000 42634.070242 0.000000 146807.211005 0.000000 0.000000 64156.554210 349587.537539 0.000000 87819.779931 134647.827419 38536.230907 6926.153744 231784.906424 93640.151880 209752.106637 0.000000 47284.443354 0.000000 18320.335089 0.000000 0.000000 29940.287477 0.000000 661.806873 0.000000 192620.921141 10615.189165 0.000000 118222.782219 0.000000 0.000000 0.000000 134483.555311 94515.590552 0.000000 0.000000 0.000000 0.000000 0.000000 13075.704103 31618.853319 22676.479482 0.000000 87540.203788 0.000000 0.000000 0.000000 0.000000 84669.787321 60103.917957 0.000000 26157.696501 0.000000 0.000000 0.000000 0.000000 84469.985040 84245.862548 0.000000 81404.293235 120630.180982 228976.606350 17336.507777 26313.979429 0.000000 0.000000 0.000000 0.000000 0.000000 0.000000 0.000000 0.000000 0.000000 15382.639798 137158.055351 0.000000 190637.216544 376221.638044 0.000000 0.000000 0.000000 0.000000 0.000000 0.000000 0.000000 1277.134340 0.000000 0.000000 0.000000 0.000000 172161.680756 0.000000 0.000000 0.000000 12568.261332 0.000000 0.000000 0.000000 0.000000 0.000000 0.000000 23205.764424 17158.589006 0.000000 95163.971574 0.000000 14063.314856 0.000000 0.000000 131834.405908 188156.837339 0.000000 0.000000 0.000000 0.000000 43804.092856 0.000000 64596.651006 0.000000 12570.621909 0.000000 0.000000 14298.418567 0.000000 241399.941242 0.000000 0.000000 0.000000 0.000000 0.000000 0.000000 1184.096398 0.000000 0.000000 0.000000 33954.087198 172753.826783 0.000000 0.000000 0.000000 0.000000 0.000000 17027.884972 72623.935569 0.000000 0.000000 0.000000 0.000000 226102.754262 0.000000 139523.186775 0.000000 0.000000 0.000000 0.000000 0.000000 0.000000 51726.770599 9660.452910 0.000000 72116.206955 59042.327820 71399.204546 0.000000 4291.209899 140621.820686 0.000000 0.000000 192420.261827 0.000000 0.000000 0.000000 0.000000 0.000000 0.000000 0.000000 0.000000 0.000000 0.000000 0.000000 0.000000 47863.385238 0.000000 124911.076045 0.000000 0.000000 0.000000 46178.325989 115125.404085 0.000000 47339.249211 9136.496218 53631.941362 0.000000 0.000000 0.000000 0.000000 0.000000 0.000000 8423.130522 0.000000 0.000000 0.000000 0.000000 0.000000 0.000000 135210.627459 0.000000 0.000000 0.000000 0.000000 0.000000 0.000000 0.000000 0.000000 39703.641587 0.000000 309931.479757 0.000000 0.000000 0.000000 0.000000 0.000000 11376.073356 12777.512042 33240.094005 0.000000 40513.695399 0.000000 0.000000 0.000000 141170.218708 0.000000 0.000000 129764.792942 62605.972318 0.000000 0.000000 0.000000 0.000000 0.000000 0.000000 0.000000 0.000000 0.000000 158619.204243 0.000000 0.000000 0.000000 0.000000 28714.930537 0.000000 0.000000 0.000000 0.000000 0.000000 25180.715135 0.000000 55961.642809 6709.496201 0.000000 0.000000 0.000000 131989.459595 0.000000 0.000000 0.000000 0.000000 0.000000 70557.450551 262305.842478 0.000000 4252.044269 0.000000 0.000000 19968.375197 0.000000 12911.062970 0.000000 0.000000 41740.880849 0.000000 0.000000 0.000000 0.000000 0.000000 0.000000 0.000000 0.000000 52177.304488 0.000000 56613.973322 158521.997613 0.000000 0.000000 0.000000 0.000000 0.000000 0.000000 14017.780026 29968.522846 0.000000 0.000000 0.000000 0.000000 153248.863831 0.000000 0.000000 79495.976736 0.000000 0.000000 0.000000 0.000000 0.000000 0.000000 69509.017916 299182.030597 0.000000 0.000000 15441.103281 62899.356470 0.000000 116677.570263 0.000000 0.000000 0.000000 0.000000 0.000000 0.000000 0.000000 0.000000 0.000000 0.000000 0.000000 0.000000 0.000000 0.000000 219671.917834 0.000000 0.000000 0.000000 0.000000 0.000000 0.000000 0.000000 31576.079567 71953.256308 116724.213567 68991.315126 0.000000 0.000000 0.000000 0.000000 0.000000 0.000000 112581.583495 0.000000 0.000000 0.000000 0.000000 0.000000 30299.565198 197885.750848 47990.844225 108504.790907 98997.210385 95017.356729 0.000000 0.000000 0.000000 0.000000 98955.693669 0.000000 0.000000 0.000000 0.000000 0.000000 0.000000 0.000000 5199.371087 0.000000 0.000000 379.337661 0.000000 22008.335062 39777.757830 47788.752211 0.000000 0.000000 0.000000 47935.541014 0.000000 0.000000 22961.336589 0.000000 202360.715277 0.000000 0.000000 0.000000 0.000000 0.000000 0.000000 0.000000 0.000000 0.000000 0.000000 0.000000 33585.556944 145580.062837 0.000000 0.000000 0.000000 0.000000 3582.259539 3582.259539 0.000000 161154.119254 271960.666885 0.000000 27257.429661 31110.084436 0.000000 117942.749289 0.000000 0.000000 0.000000 37784.301156 0.000000 0.000000 291308.745963 0.000000 0.000000 339387.305677 0.000000 129610.406250 0.000000 369304.165726 28032.195115 139117.702564 0.000000 0.000000 50928.808686 0.000000 0.000000 0.000000 1365.695732 0.000000 0.000000 0.000000 0.000000 0.000000 0.000000 0.000000 41467.940740 179611.860602 0.000000 39549.731222 0.000000 0.000000 0.000000 174921.303823 0.000000 107580.567714 0.000000 0.000000 0.000000 69731.113517 40021.603000 193787.008386 0.000000 0.000000 13146.847365 0.000000 24943.659962 61213.737767 4935.942484 295614.033348 0.000000 130704.380940 0.000000 0.000000 0.000000 0.000000 0.000000 24677.635232 0.000000 214281.141627 0.000000 142823.197409 94366.570971 0.000000 5728.002717 223600.755903 0.000000 0.000000 0.000000 0.000000 0.000000 0.000000 55713.143507 155377.777625 0.000000 0.000000 0.000000 0.000000 0.000000 23979.593461 0.000000 0.000000 0.000000 0.000000 0.000000 0.000000 31224.224863 34148.890679 0.000000 0.000000 0.000000 0.000000 0.000000 55115.853568 140447.817335 0.000000 0.000000 0.000000 0.000000 0.000000 9492.157751 0.000000 0.000000 0.000000 0.000000 0.000000 0.000000 6345.919871 25863.854802 0.000000 0.000000 0.000000 0.000000 0.000000 14019.476960 153016.358852 0.000000 0.000000 0.000000 0.000000 0.000000 4800.909938 21782.491990 0.000000 0.000000 0.000000 0.000000 0.000000 2886.434546 1072.131346 0.000000 0.000000 0.000000 0.000000 0.000000 14809.605882 28046.895992 0.000000 0.000000 0.000000 0.000000 0.000000 77307.375842 236554.557623 0.000000 0.000000 0.000000 0.000000 0.000000 107518.968442 529585.003967 0.000000 0.000000 0.000000 0.000000 0.000000 55204.889760 282695.221140 0.000000 0.000000 0.000000 0.000000 0.000000 26385.161742 47591.469231 0.000000 0.000000 0.000000 0.000000 0.000000 13764.504526 28262.024362 0.000000 0.000000 0.000000 0.000000 0.000000 21709.119320 97717.797784 0.000000 0.000000 0.000000 0.000000 0.000000 7035.226393 8949.050550 0.000000 0.000000 0.000000 0.000000 0.000000 17030.531138 78492.656390 0.000000 0.000000 0.000000 0.000000 0.000000 47006.056523 199964.878492 0.000000 0.000000 0.000000 0.000000 0.000000 44961.709056 222250.734173 0.000000 0.000000 0.000000 0.000000 0.000000 34576.716558 253331.537512 0.000000 0.000000 0.000000 0.000000 0.000000 38581.471964 194539.529194 0.000000 0.000000 0.000000 0.000000 0.000000 37001.932709 143982.024819 0.000000 0.000000 0.000000 0.000000 0.000000 30370.133760 70618.621617 0.000000 0.000000 0.000000 0.000000 0.000000 5408.081218 0.000000 0.000000 0.000000 0.000000 0.000000 0.000000 2789.691368 0.000000 0.000000 0.000000 0.000000 0.000000 0.000000 26109.744503 32989.063261 0.000000 0.000000 0.000000 0.000000 0.000000 27769.780598 89553.303662 0.000000 0.000000 0.000000 0.000000 0.000000 18020.042416 33522.223755 0.000000 0.000000 0.000000 0.000000 0.000000 20541.416255 42463.542386 0.000000 0.000000 0.000000 0.000000 0.000000 20462.689187 128014.765002 0.000000 0.000000 0.000000 0.000000 0.000000 8344.023179 102775.352569 0.000000 0.000000 0.000000 0.000000 0.000000 14135.860526 100743.516934 0.000000 0.000000 0.000000 0.000000 0.000000 14945.403135 52972.013854 0.000000 0.000000 0.000000 0.000000 0.000000 20575.155254 82141.185875 0.000000 0.000000 0.000000 0.000000 0.000000 19537.810723 63776.604415 0.000000 0.000000 0.000000 0.000000 0.000000 2335.871220 24784.479090 0.000000 0.000000 0.000000 0.000000 0.000000 20596.596965 127441.453547 0.000000 0.000000 0.000000 0.000000 0.000000 45567.513268 138188.382377 0.000000 0.000000 0.000000 0.000000 0.000000 11894.389731 1479.751135 0.000000 0.000000 0.000000 0.000000 0.000000 705.956544 0.000000 0.000000 0.000000 0.000000 0.000000 0.000000 4462.493175 0.000000 0.000000 0.000000 0.000000 0.000000 0.000000 0.000000 0.000000 0.000000 0.000000 0.000000 0.000000 0.000000 0.000000 0.000000 0.000000 0.000000 0.000000 0.000000 0.000000 3419.863620 14096.225522 0.000000 0.000000 0.000000 0.000000 0.000000 0.000000 0.000000 0.000000 0.000000 0.000000 0.000000 0.000000 7126.013197 0.000000 0.000000 0.000000 0.000000 0.000000 0.000000 32653.825850 66151.136461 0.000000 0.000000 0.000000 0.000000 0.000000 20651.300343 87798.741902 0.000000 0.000000 0.000000 0.000000 0.000000 11189.949558 63223.269477 0.000000 0.000000 0.000000 0.000000 0.000000 11902.891279 32322.582321 0.000000 0.000000 0.000000 0.000000 0.000000 37232.353958 185495.554017 0.000000 0.000000 0.000000 0.000000 0.000000 30482.521618 169401.549634 0.000000 0.000000 0.000000 0.000000 0.000000 10425.734548 25262.258873 0.000000 0.000000 0.000000 0.000000 0.000000 14544.561069 23848.878924 0.000000 0.000000 0.000000 0.000000 0.000000 69644.675166 283197.498563 0.000000 0.000000 0.000000 0.000000 0.000000 44946.594054 268152.421211 0.000000 0.000000 0.000000 0.000000 0.000000 30629.925030 128658.865166 0.000000 0.000000 0.000000 0.000000 0.000000 42802.577974 110950.120864 0.000000 0.000000 0.000000 0.000000 0.000000 22622.583156 47217.093696 0.000000 0.000000 0.000000 0.000000 0.000000 65532.544254 317505.331500 0.000000 0.000000 0.000000 0.000000 0.000000 35390.189937 145058.198531 0.000000 0.000000 0.000000 0.000000 0.000000 37152.796664 115780.146122 0.000000 0.000000 0.000000 0.000000 0.000000 46844.884750 203841.050191 0.000000 0.000000 0.000000 0.000000 0.000000 15936.136626 101562.607187 0.000000 0.000000 0.000000 0.000000 0.000000 19968.007952 41758.168325 0.000000 0.000000 0.000000 0.000000 0.000000 36038.211551 144258.123837 0.000000 0.000000 0.000000 0.000000 0.000000 20560.440016 150238.312185 0.000000 0.000000 0.000000 0.000000 0.000000 5856.872711 70470.778609 0.000000 0.000000 0.000000 0.000000 0.000000 18378.525780 89210.798201 0.000000 0.000000 0.000000 0.000000 0.000000 48866.300814 193905.035729 0.000000 0.000000 0.000000 0.000000 0.000000 44567.290801 307377.330090 0.000000 0.000000 0.000000 0.000000 0.000000 6268.244793 16705.893186 0.000000 0.000000 0.000000 0.000000 0.000000 25729.872642 42395.175271 0.000000 0.000000 0.000000 0.000000 0.000000 64686.116272 329616.312237 0.000000 0.000000 0.000000 0.000000 0.000000 44032.671977 288496.019573 0.000000 0.000000 0.000000 0.000000 0.000000 26099.448602 92036.703259 0.000000 0.000000 0.000000 0.000000 0.000000 21835.323079 74740.576912 0.000000 0.000000 0.000000 0.000000 0.000000 65088.031046 374476.811492 0.000000 0.000000 0.000000 0.000000 0.000000 68281.773306 203035.254877 0.000000 0.000000 0.000000 0.000000 0.000000 53361.007528 105115.574848 0.000000 0.000000 0.000000 0.000000 0.000000 14482.520016 30386.811703 0.000000 10078.889056 25576.482670 22169.953811 0.000000 353.004691 6837.167636 0.000000 0.000000 0.000000 0.000000 0.000000 0.000000 0.000000 0.000000 0.000000 0.000000 0.000000 0.000000 0.000000 0.000000 0.000000 0.000000 0.000000 0.000000 0.000000 0.000000 0.000000 0.000000 0.000000 0.000000 0.000000 0.000000 0.000000 0.000000 0.000000 0.000000 0.000000 0.000000 0.000000 0.000000 0.000000 0.000000 0.000000 0.000000 0.000000 0.000000 0.000000 0.000000 0.000000 0.000000 0.000000 0.000000 0.000000 0.000000 0.000000 0.000000 0.000000 0.000000 0.000000 0.000000 0.000000 0.000000 0.000000 0.000000 0.000000 0.000000 0.000000 0.000000 0.000000 0.000000 0.000000 0.000000 0.000000 0.000000 0.000000 0.000000 0.000000 0.000000 0.000000 0.000000 0.000000 0.000000 0.000000 0.000000 0.000000 0.000000 0.000000 0.000000 0.000000 0.000000 0.000000 0.000000 0.000000 0.000000 0.000000 0.000000 0.000000 0.000000 0.000000 0.000000 0.000000 0.000000 0.000000 0.000000 0.000000 0.000000 0.000000 0.000000 0.000000 0.000000 0.000000 0.000000 0.000000 0.000000 0.000000 0.000000 0.000000 0.000000 0.000000 0.000000 0.000000 0.000000 0.000000 0.000000 0.000000 0.000000 0.000000 0.000000 0.000000 0.000000 0.000000 0.000000 0.000000 0.000000 0.000000 0.000000 0.000000 0.000000 0.000000 0.000000 0.000000 0.000000 0.000000 0.000000 0.000000 0.000000 0.000000 0.000000 0.000000 0.000000 0.000000 0.000000 0.000000 0.000000 0.000000 0.000000 0.000000 0.000000 0.000000 0.000000 0.000000 0.000000 0.000000 0.000000 0.000000 0.000000
</DataArray>
<DataArray type="Float64" Name="Velocity" NumberOfComponents="3" format="ascii">