<VTKFile type="PolyData">
<PolyData>
<Piece NumberOfPoints="1840" NumberOfVerts="1840" NumberOfLines="0" NumberOfStrips="0" NumberOfPolys="0">
<PointData>
<DataArray type="Float64" Name="Pressure" format="ascii">
 0.000000 0.000000 0.000000 0.000000 0.000000 0.000000 0.000000 0.000000 0.000000 0.000000 0.000000 0.000000 0.000000 0.000000 0.000000 0.000000 0.000000 0.000000 0.000000 0.000000 0.000000 0.000000 0.000000 0.000000 0.000000 0.000000 0.000000 0.000000 0.000000 0.000000 0.000000 0.000000 0.000000 0.000000 0.000000 0.000000 0.000000 0.000000 0.000000 0.000000 0.000000 0.000000 0.000000 0.000000 0.000000 0.000000 0.000000 0.000000 0.000000 0.000000 0.000000 0.000000 0.000000 0.000000 0.000000 0.000000 0.000000 0.000000 0.000000 0.000000 0.000000 0.000000 0.000000 0.000000 0.000000 0.000000 0.000000 0.000000 0.000000 0.000000 0.000000 0.000000 0.000000 0.000000 0.000000 0.000000 0.000000 0.000000 0.000000 0.000000 0.000000 0.000000 0.000000 0.000000 0.000000 0.000000 0.000000 0.000000 0.000000 0.000000 0.000000 0.000000 0.000000 0.000000 0.000000 0.000000 0.000000 0.000000 0.000000 0.000000 0.000000 0.000000 0.000000 0.000000 0.000000 0.000000 0.000000 0.000000 0.000000 0.000000 0.000000 0.000000 0.000000 0.000000 0.000000 0.000000 0.000000 0.000000 0.000000 24447.766758 65699.623978 27829.626349 18719.076760 60112.931023 34151.016852 0.000000 0.000000 0.000000 5302.009375 8429.255896 5161.428996 19673.619974 4255.931805 0.000000 0.000000 0.000000 0.000000 0.000000 0.000000 0.000000 0.000000 0.000000 0.000000 0.000000 0.000000 0.000000 0.000000 0.000000 0.000000 0.000000 0.000000 0.000000 0.000000 0.000000 0.000000 0.000000 0.000000 0.000000 0.000000 0.000000 0.000000 0.000000 0.000000 0.000000 0.000000 0.000000 0.000000 0.000000 0.000000 0.000000 0.000000 0.000000 0.000000 505.670179 2756.838803 0.000000 0.000000 73503.650560 106772.640429 56300.366655 67930.360647 36377.686066 0.000000 0.000000 0.000000 0.000000 0.000000 0.000000 111257.731152 0.000000 0.000000 0.000000 0.000000 0.000000 0.000000 0.000000 0.000000 0.000000 0.000000 0.000000 0.000000 0.000000 0.000000 0.000000 0.000000 0.000000 0.000000 0.000000 0.000000 0.000000 0.000000 0.000000 0.000000 0.000000 0.000000 0.000000 0.000000 0.000000 0.000000 0.000000 0.000000 0.000000 0.000000 0.000000 0.000000 0.000000 0.000000 0.000000 0.000000 0.000000 10096.518442 81549.229462 205617.632770 102778.529326 198518.246886 0.000000 15611.290665 131290.906071 7452.137589 0.000000 15438.003631 0.000000 26883.756248 144385.312429 111531.490176 297483.282122 0.000000 19955.408079 0.000000 0.000000 141655.039062 18549.133464 0.000000 0.000000 0.000000 0.000000 52943.910461 37241.855648 83095.046793 134929.884513 0.000000 0.000000 74104.380847 0.000000 0.000000 29982.263213 0.000000 0.000000 0.000000 0.000000 2488.875879 0.000000 0.000000 0.000000 0.000000 0.000000 12985.390914 118018.443815 0.000000 0.000000 0.000000 65966.900785 30062.582299 0.000000 55410.625738 0.000000 20587.073298 0.000000 0.000000 0.000000 0.000000 0.000000 0.000000 0.000000 380506.088830 0.000000 0.000000 114207.891575 0.000000 0.000000 0.000000 551947.470408 0.000000 0.000000 184466.491282 0.000000 0.000000 7366.134280 0.000000 110448.061677 0.000000 0.000000 86115.503832 0.000000 1105.313709 123816.177769 123554.176661 0.000000 0.000000 0.000000 0.000000 0.000000 25753.979306 159889.465456 0.000000 0.000000 613810.169300 21407.988700 0.000000 0.000000 0.000000 24864.789244 0.000000 119449.253371 0.000000 0.000000 0.000000 0.000000 0.000000 83234.132417 0.000000 69984.956576 42286.142134 76325.190455 279573.215813 0.000000 0.000000 0.000000 0.000000 0.000000 0.000000 0.000000 37030.677075 0.000000 216129.255687 0.000000 0.000000 143146.626368 0.000000 0.000000 0.000000 125834.970401 0.000000 0.000000 0.000000 0.000000 0.000000 0.000000 27059.920529 238333.060744 0.000000 78851.057579 0.000000 268334.936342 0.000000 64605.875326 41148.892059 0.000000 0.000000 17027.469355 45129.142377 0.000000 12988.573507 0.000000 108651.446799 0.000000 85241.631405 0.000000 0.000000 0.000000 94332.427257 0.000000 0.000000 0.000000 0.000000 52016.326544 0.000000 4238.486517 0.000000 0.000000 0.000000 0.000000 62912.987338 319402.535997 160573.474211 0.000000 288802.202753 263877.631339 12113.947018 0.000000 0.000000 0.000000 0.000000 0.000000 22141.735097 135563.743553 0.000000 0.000000 0.000000 216374.988674 5184.677147 0.000000 0.000000 0.000000 9325.787928 51659.618270 0.000000 0.000000 0.000000 0.000000 0.000000 454250.011346 36612.431004 79547.444473 43357.991537 0.000000 0.000000 0.000000 0.000000 0.000000 13810.783502 0.000000 88230.199671 34042.467873 0.000000 47489.640024 0.000000 0.000000 0.000000 0.000000 116003.479034 0.000000 0.000000 6887.880387 0.000000 0.000000 0.000000 0.000000 0.000000 0.000000 113796.093802 515309.236378 10905.548576 134091.641010 0.000000 0.000000 0.000000 146621.125998 113853.923718 0.000000 0.000000 0.000000 0.000000 0.000000 12544.951965 39315.813206 0.000000 30250.502933 0.000000 0.000000 0.000000 7233.960613 0.000000 0.000000 0.000000 176714.013086 177915.701172 0.000000 0.000000 130875.799284 0.000000 97973.988167 34152.348345 22480.059467 38215.962392 0.000000 0.000000 0.000000 0.000000 428061.689399 0.000000 0.000000 0.000000 0.000000 0.000000 0.000000 110282.942461 377174.762901 25511.475317 34482.617257 207440.364259 0.000000 0.000000 0.000000 0.000000 0.000000 169588.043584 0.000000 0.000000 0.000000 26909.104783 0.000000 0.000000 0.000000 0.000000 383705.274801 83384.995745 151961.448849 0.000000 0.000000 0.000000 0.000000 2287.569858 78603.465831 0.000000 0.000000 0.000000 0.000000 0.000000 166415.425934 0.000000 0.000000 123163.890080 32420.499336 25792.884853 32667.783413 0.000000 0.000000 0.000000 0.000000 0.000000 0.000000 13727.301809 28708.866261 0.000000 145592.190196 0.000000 54003.363186 11744.289409 0.000000 0.000000 0.000000 42757.564590 21489.788836 13973.773582 0.000000 0.000000 0.000000 0.000000 0.000000 67473.528704 0.000000 0.000000 90448.976223 222298.729118 0.000000 0.000000 100450.563479 35106.647361 24737.110257 0.000000 0.000000 0.000000 0.000000 0.000000 0.000000 0.000000 30896.700551 0.000000 0.000000 24420.092059 0.000000 111594.639474 0.000000 0.000000 0.000000 0.000000 0.000000 6812.345367 76238.235095 0.000000 0.000000 0.000000 0.000000 0.000000 0.000000 0.000000 0.000000 0.000000 0.000000 35318.960600 0.000000 0.000000 0.000000 0.000000 0.000000 0.000000 0.000000 0.000000 0.000000 534401.255565 0.000000 0.000000 45276.644827 0.000000 0.000000 0.000000 0.000000 0.000000 24708.853373 68199.393914 0.000000 0.000000 0.000000 0.000000 282027.770978 0.000000 0.000000 0.000000 0.000000 0.000000 0.000000 0.000000 0.000000 39638.654795 272779.137846 130670.820636 0.000000 126273.941062 22381.906077 0.000000 25479.376641 0.000000 0.000000 61840.190916 59415.637672 0.000000 0.000000 0.000000 0.000000 25336.705372 0.000000 0.000000 128648.774562 0.000000 0.000000 0.000000 54535.235577 7698.132969 13961.759886 0.000000 0.000000 55708.165070 0.000000 0.000000 0.000000 2746.626300 0.000000 0.000000 0.000000 115884.603420 0.000000 0.000000 0.000000 0.000000 0.000000 0.000000 0.000000 0.000000 0.000000 65098.004032 195013.767939 154118.438310 0.000000 0.000000 0.000000 20190.266377 64773.703815 25684.309615 134997.455059 0.000000 0.000000 22591.217519 0.000000 0.000000 0.000000 0.000000 52558.995015 0.000000 0.000000 0.000000 0.000000 0.000000 0.000000 0.000000 0.000000 0.000000 82165.450374 0.000000 0.000000 0.000000 0.000000 0.000000 0.000000 0.000000 0.000000 62951.893708 89219.278712 0.000000 0.000000 0.000000 0.000000 0.000000 0.000000 0.000000 0.000000 28666.886985 46185.469324 411765.238689 0.000000 0.000000 58613.536416 36667.851104 0.000000 34127.063733 0.000000 0.000000 0.000000 0.000000 206619.838372 6224.433551 343131.655423 122595.452727 69230.308693 31212.598476 0.000000 107988.370948 0.000000 0.000000 43470.427113 0.000000 0.000000 189411.264778 7482.735261 0.000000 21458.702087 114411.697499 0.000000 0.000000 0.000000 59240.382207 0.000000 93325.815269 0.000000 388263.552566 0.000000 0.000000 0.000000 0.000000 0.000000 0.000000 0.000000 29996.826005 146723.391261 0.000000 0.000000 0.000000 0.000000 0.000000 0.000000 0.000000 0.000000 0.000000 0.000000 0.000000 15665.017038 30625.350798 0.000000 0.000000 115301.552332 0.000000 0.000000 0.000000 141795.524048 0.000000 0.000000 0.000000 105913.055795 47085.451808 0.000000 0.000000 0.000000 65422.940486 108697.560317 144374.223199 0.000000 94419.739919 0.000000 46374.669646 33150.916400 0.000000 0.000000 90486.398381 0.000000 0.000000 0.000000 0.000000 0.000000 19784.464647 167887.152042 0.000000 11971.325741 0.000000 25981.698606 0.000000 0.000000 0.000000 0.000000 0.000000 0.000000 0.000000 0.000000 0.000000 0.000000 0.000000 23033.946999 0.000000 20157.866889 0.000000 0.000000 0.000000 137301.576991 0.000000 0.000000 0.000000 37639.214273 86572.958412 0.000000 108230.890821 0.000000 0.000000 0.000000 0.000000 0.000000 0.000000 0.000000 0.000000 0.000000 0.000000 0.000000 0.000000 0.000000 0.000000 0.000000 2878.377388 5557.117257 0.000000 97490.300353 0.000000 0.000000 0.000000 0.000000 0.000000 0.000000 0.000000 25662.811081 51030.226678 119326.227765 0.000000 0.000000 0.000000 33927.907094 0.000000 0.000000 0.000000 0.000000 0.000000 0.000000 0.000000 595715.931879 0.000000 16206.527813 0.000000 0.000000 0.000000 9883.029671 272669.504604 0.000000 0.000000 441.339123 0.000000 0.000000 65057.529598 0.000000 3488.755205 0.000000 0.000000 0.000000 0.000000 0.000000 0.000000 0.000000 0.000000 0.000000 0.000000 51990.742297 0.000000 0.000000 75103.539661 0.000000 0.000000 0.000000 0.000000 0.000000 0.000000 0.000000 0.000000 0.000000 114524.810106 0.000000 0.000000 0.000000 0.000000 0.000000 5078.967094 71774.612241 10647.599519 8581.313375 272617.037639 0.000000 156229.716245 69306.447456 0.000000 0.000000 0.000000 98345.812618 42902.670984 90944.465707 0.000000 0.000000 0.000000 0.000000 0.000000 0.000000 0.000000 0.000000 7867.385197 43438.233272 114188.378015 0.000000 66431.943437 41150.501742 322557.263370 0.000000 0.000000 0.000000 80547.055960 0.000000 0.000000 27496.133213 0.000000 0.000000 61184.748449 0.000000 0.000000 0.000000 0.000000 0.000000 0.000000 0.000000 0.000000 171142.540406 1853.307081 0.000000 0.000000 0.000000 0.000000 0.000000 0.000000 0.000000 0.000000 14007.232096 0.000000 0.000000 0.000000 0.000000 0.000000 0.000000 0.000000 0.000000 0.000000 0.000000 11706.064323 60123.712617 0.000000 0.000000 0.000000 0.000000 18117.393015 18117.393015 0.000000 246821.579404 148218.549543 172534.207318 0.000000 57521.044929 0.000000 0.000000 0.000000 0.000000 37118.798136 0.000000 4944.853479 0.000000 0.000000 0.000000 0.000000 0.000000 69968.242855 0.000000 0.000000 0.000000 113212.066341 12422.212739 0.000000 0.000000 29118.079414 0.000000 28827.917368 0.000000 4588.151954 0.000000 0.000000 0.000000 0.000000 0.000000 0.000000 0.000000 10367.282386 79499.045788 146652.308963 0.000000 73266.879792 4100.763117 0.000000 0.000000 433309.231381 0.000000 248051.571610 0.000000 0.000000 0.000000 0.000000 79737.475398 0.000000 0.000000 0.000000 165173.689121 0.000000 29886.180314 0.000000 0.000000 0.000000 0.000000 108851.221214 43146.548384 283763.101183 0.000000 90767.316761 0.000000 0.000000 0.000000 51352.331761 0.000000 0.000000 0.000000 31607.951076 0.000000 0.000000 0.000000 0.000000 0.000000 0.000000 0.000000 9723.110882 134823.208438 0.000000 0.000000 0.000000 0.000000 0.000000 13278.962212 193920.668446 0.000000 0.000000 0.000000 0.000000 0.000000 5889.003682 61705.074707 0.000000 0.000000 0.000000 0.000000 0.000000 7775.225160 42740.111513 0.000000 0.000000 0.000000 0.000000 0.000000 29229.261275 113984.412879 0.000000 0.000000 0.000000 0.000000 0.000000 22171.950383 55633.492141 0.000000 0.000000 0.000000 0.000000 0.000000 11169.617127 84073.201974 0.000000 0.000000 0.000000 0.000000 0.000000 7664.005502 126101.507644 0.000000 0.000000 0.000000 0.000000 0.000000 5112.693669 84207.205523 0.000000 0.000000 0.000000 0.000000 0.000000 11819.033294 103954.079976 0.000000 0.000000 0.000000 0.000000 0.000000 11296.050307 85792.174959 0.000000 0.000000 0.000000 0.000000 0.000000 25151.767266 115225.438887 0.000000 0.000000 0.000000 0.000000 0.000000 90526.893261 512074.593385 0.000000 0.000000 0.000000 0.000000 0.000000 49549.952117 151662.643737 0.000000 0.000000 0.000000 0.000000 0.000000 21352.310683 5840.242259 0.000000 0.000000 0.000000 0.000000 0.000000 40515.734911 66158.522723 0.000000 0.000000 0.000000 0.000000 0.000000 10525.664445 0.000000 0.000000 0.000000 0.000000 0.000000 0.000000 14305.101182 16078.895449 0.000000 0.000000 0.000000 0.000000 0.000000 13562.350863 20879.404083 0.000000 0.000000 0.000000 0.000000 0.000000 2571.637277 0.000000 0.000000 0.000000 0.000000 0.000000 0.000000 9700.056311 46347.566942 0.000000 0.000000 0.000000 0.000000 0.000000 42184.550025 304562.912610 0.000000 0.000000 0.000000 0.000000 0.000000 37550.101415 399799.971912 0.000000 0.000000 0.000000 0.000000 0.000000 16306.753007 82057.137688 0.000000 0.000000 0.000000 0.000000 0.000000 48898.169567 97315.297729 0.000000 0.000000 0.000000 0.000000 0.000000 76104.292987 156966.677245 0.000000 0.000000 0.000000 0.000000 0.000000 53044.839331 115807.797355 0.000000 0.000000 0.000000 0.000000 0.000000 55224.291521 94104.193677 0.000000 0.000000 0.000000 0.000000 0.000000 42468.888563 25124.573595 0.000000 0.000000 0.000000 0.000000 0.000000 54462.177893 38626.642002 0.000000 0.000000 0.000000 0.000000 0.000000 145678.769537 345529.329840 0.000000 0.000000 0.000000 0.000000 0.000000 109861.100881 194886.664609 0.000000 0.000000 0.000000 0.000000 0.000000 63709.252662 123504.371895 0.000000 0.000000 0.000000 0.000000 0.000000 20479.350320 47047.453899 0.000000 0.000000 0.000000 0.000000 0.000000 32263.944924 50112.819787 0.000000 0.000000 0.000000 0.000000 0.000000 39738.482347 24014.406225 0.000000 0.000000 0.000000 0.000000 0.000000 4726.232237 0.000000 0.000000 0.000000 0.000000 0.000000 0.000000 0.000000 10276.660112 0.000000 0.000000 0.000000 0.000000 0.000000 0.000000 0.000000 0.000000 0.000000 0.000000 0.000000 0.000000 0.000000 0.000000 0.000000 0.000000 0.000000 0.000000 0.000000 452.102487 0.000000 0.000000 0.000000 0.000000 0.000000 0.000000 13266.905979 67435.871828 0.000000 0.000000 0.000000 0.000000 0.000000 4312.656527 0.000000 0.000000 0.000000 0.000000 0.000000 0.000000 2631.029826 0.000000 0.000000 0.000000 0.000000 0.000000 0.000000 29690.617070 93304.619344 0.000000 0.000000 0.000000 0.000000 0.000000 65396.041193 252146.785546 0.000000 0.000000 0.000000 0.000000 0.000000 40975.345610 64782.836029 0.000000 0.000000 0.000000 0.000000 0.000000 1218.651608 0.000000 0.000000 0.000000 0.000000 0.000000 0.000000 0.000000 0.000000 0.000000 0.000000 0.000000 0.000000 0.000000 4666.513650 39374.202665 0.000000 0.000000 0.000000 0.000000 0.000000 7378.816667 42747.205642 0.000000 0.000000 0.000000 0.000000 0.000000 31123.996469 81305.381423 0.000000 0.000000 0.000000 0.000000 0.000000 27338.617233 90368.764996 0.000000 0.000000 0.000000 0.000000 0.000000 46533.069472 155578.114205 0.000000 0.000000 0.000000 0.000000 0.000000 84920.029316 175685.663764 0.000000 0.000000 0.000000 0.000000 0.000000 42060.442183 15754.567243 0.000000 0.000000 0.000000 0.000000 0.000000 2391.270871 0.000000 0.000000 0.000000 0.000000 0.000000 0.000000 11774.137500 10532.168359 0.000000 0.000000 0.000000 0.000000 0.000000 19779.950030 60319.303404 0.000000 0.000000 0.000000 0.000000 0.000000 6701.563553 39601.104074 0.000000 0.000000 0.000000 0.000000 0.000000 19080.952443 127833.175898 0.000000 0.000000 0.000000 0.000000 0.000000 27153.317157 118571.825222 0.000000 0.000000 0.000000 0.000000 0.000000 5964.632615 5645.679351 0.000000 0.000000 0.000000 0.000000 0.000000 7058.971518 5391.476902 0.000000 0.000000 0.000000 0.000000 0.000000 11311.475259 28484.176368 0.000000 0.000000 0.000000 0.000000 0.000000 6049.833658 0.000000 0.000000 0.000000 0.000000 0.000000 0.000000 14236.862395 0.000000 0.000000 0.000000 0.000000 0.000000 0.000000 53715.354808 17694.335708 0.000000 0.000000 0.000000 0.000000 0.000000 19479.409618 0.000000 0.000000 0.000000 0.000000 0.000000 0.000000 5138.650795 24196.036135 0.000000 0.000000 0.000000 0.000000 0.000000 23828.328864 190821.618482 0.000000 0.000000 0.000000 0.000000 0.000000 17302.602739 186717.433828 0.000000 0.000000 0.000000 0.000000 0.000000 10921.228634 75934.023998 0.000000 0.000000 0.000000 0.000000 0.000000 9327.307469 9261.854360 0.000000 0.000000 0.000000 0.000000 0.000000 15869.706050 23733.765827 0.000000 0.000000 0.000000 0.000000 0.000000 19490.259787 70595.616241 0.000000 0.000000 0.000000 0.000000 0.000000 15074.816949 91614.275695 0.000000 0.000000 0.000000 0.000000 0.000000 656.906640 0.000000 0.000000 0.000000 0.000000 0.000000 0.000000 10417.064094 0.000000 0.000000 0.000000 0.000000 0.000000 0.000000 14252.803483 89497.297600 0.000000 0.000000 0.000000 0.000000 0.000000 6229.127525 65926.799612 0.000000 0.000000 0.000000 0.000000 0.000000 1210.666838 8725.254553 0.000000 0.000000 0.000000 6023.277444 0.000000 0.000000 2801.103091 0.000000 0.000000 0.000000 0.000000 0.000000 0.000000 0.000000 0.000000 0.000000 0.000000 0.000000 0.000000 0.000000 0.000000 0.000000 0.000000 0.000000 0.000000 0.000000 0.000000 0.000000 0.000000 0.000000 0.000000 0.000000 0.000000 0.000000 0.000000 0.000000 0.000000 0.000000 0.000000 0.000000 0.000000 0.000000 0.000000 0.000000 0.000000 0.000000 0.000000 0.000000 0.000000 0.000000 0.000000 0.000000 0.000000 0.000000 0.000000 0.000000 0.000000 0.000000 0.000000 0.000000 0.000000 0.000000 0.000000 0.000000 0.000000 0.000000 0.000000 0.000000 0.000000 0.000000 0.000000 0.000000 0.000000 0.000000 0.000000 0.000000 0.000000 0.000000 0.000000 0.000000 0.000000 0.000000 0.000000 0.000000 0.000000 0.000000 0.000000 0.000000 0.000000 0.000000 0.000000 0.000000 0.000000 0.000000 0.000000 0.000000 0.000000 0.000000 0.000000 0.000000 0.000000 0.000000 0.000000 0.000000 0.000000 0.000000 0.000000 0.000000 0.000000 0.000000 0.000000 0.000000 0.000000 0.000000 0.000000 0.000000 0.000000 0.000000 0.000000 0.000000 0.000000 0.000000 0.000000 0.000000 0.000000 0.000000 0.000000 0.000000 0.000000 0.000000 0.000000 0.000000 0.000000 0.000000 0.000000 0.000000 0.000000 0.000000 0.000000 0.000000 0.000000 0.000000 0.000000 0.000000 0.000000 0.000000 0.000000 0.000000 0.000000 0.000000 0.000000 0.000000 0.000000 0.000000 0.000000 0.000000 0.000000 0.000000 0.000000 0.000000 0.000000 0.000000 0.000000 0.000000 0.000000 0.000000 0.000000
</DataArray>
<DataArray type="Float64" Name="Velocity" NumberOfComponents="3" format="ascii">