<VTKFile type="PolyData">
<PolyData>
<Piece NumberOfPoints="1840" NumberOfVerts="1840" NumberOfLines="0" NumberOfStrips="0" NumberOfPolys="0">
<PointData>
<DataArray type="Float64" Name="Pressure" format="ascii">
 0.000000 0.000000 0.000000 0.000000 0.000000 0.000000 0.000000 0.000000 0.000000 0.000000 0.000000 0.000000 0.000000 0.000000 0.000000 0.000000 0.000000 0.000000 0.000000 0.000000 0.000000 0.000000 0.000000 0.000000 0.000000 0.000000 0.000000 0.000000 0.000000 0.000000 0.000000 0.000000 0.000000 0.000000 0.000000 0.000000 0.000000 0.000000 0.000000 0.000000 0.000000 0.000000 0.000000 0.000000 0.000000 0.000000 0.000000 0.000000 0.000000 0.000000 0.000000 0.000000 0.000000 0.000000 0.000000 0.000000 0.000000 0.000000 0.000000 0.000000 0.000000 0.000000 0.000000 0.000000 0.000000 0.000000 0.000000 0.000000 0.000000 0.000000 0.000000 0.000000 0.000000 0.000000 0.000000 0.000000 0.000000 0.000000 0.000000 0.000000 0.000000 0.000000 0.000000 0.000000 0.000000 0.000000 0.000000 0.000000 0.000000 0.000000 0.000000 0.000000 0.000000 0.000000 0.000000 0.000000 0.000000 0.000000 0.000000 0.000000 0.000000 0.000000 0.000000 0.000000 0.000000 0.000000 0.000000 0.000000 0.000000 0.000000 0.000000 0.000000 0.000000 0.000000 0.000000 0.000000 23816.360351 91164.418263 110497.462851 115835.817453 109842.779909 108206.663620 97173.991073 89429.547775 68321.834136 64800.221112 39956.381104 43048.498876 28067.626387 14650.438596 12367.606541 8180.081903 8661.269939 12362.342499 17479.951034 22752.598293 17848.751937 7335.864822 1856.973731 409.552055 0.000000 0.000000 0.000000 0.000000 0.000000 0.000000 0.000000 0.000000 0.000000 0.000000 0.000000 0.000000 0.000000 0.000000 0.000000 0.000000 0.000000 0.000000 0.000000 0.000000 0.000000 0.000000 0.000000 0.000000 0.000000 0.000000 0.000000 0.000000 0.000000 0.000000 0.000000 0.000000 0.000000 93495.205587 434375.091884 404608.144821 400481.206752 437164.752238 477461.400668 414660.546829 333781.222527 304894.625636 298997.337781 230449.958055 289671.206171 236538.887426 163915.734585 158833.984690 145031.652542 133085.549017 133200.276299 171427.498608 291083.744896 289784.546000 121052.829228 31977.530838 7759.228997 1377.342874 0.000000 0.000000 0.000000 0.000000 0.000000 0.000000 0.000000 0.000000 0.000000 0.000000 0.000000 0.000000 0.000000 0.000000 0.000000 0.000000 0.000000 0.000000 0.000000 0.000000 0.000000 0.000000 0.000000 0.000000 0.000000 0.000000 0.000000 0.000000 0.000000 0.000000 0.000000 0.000000 115372.053463 465351.776546 434375.091884 334316.258507 383785.982978 359728.779688 420851.598195 323115.860244 475177.131495 301383.322737 384258.181257 314227.091511 356891.632476 309643.882944 300085.219830 290881.774463 295139.915445 338409.297550 272643.739083 210999.040616 231482.873716 262408.374763 348097.030818 354956.241038 255762.565057 149520.284892 119216.906364 215660.116738 381564.197257 487485.176008 440851.180170 261944.026579 97124.198429 28030.652156 7579.758161 1085.414879 0.000000 0.000000 0.000000 0.000000 0.000000 0.000000 0.000000 0.000000 0.000000 0.000000 116187.018850 450769.599200 454887.026304 389286.594084 341440.518858 380769.703489 397373.334694 325158.802308 367388.541051 332784.505836 329071.992462 326538.634265 345988.083954 362013.379120 366485.446618 339631.374016 299918.415528 300892.846181 296536.205829 273586.382391 175251.400195 102866.522789 133396.877017 224376.014236 286811.411806 248030.290760 143253.885077 73853.627290 89882.744520 190084.941694 278437.665557 227924.617584 105850.380103 34954.627691 10246.008251 2135.156196 79.077892 0.000000 0.000000 0.000000 0.000000 0.000000 0.000000 0.000000 0.000000 0.000000 107171.704535 433716.215499 432963.938732 452340.023384 453917.116821 436303.572216 319267.212452 332183.935080 390703.845920 370768.462362 287085.228066 227883.885379 214661.384789 261168.072798 310173.258510 251849.373889 187578.901316 201902.874526 287296.136367 341018.674618 307671.161324 219549.978417 163656.488930 177948.340627 245335.799461 271029.292839 213456.803147 158244.188231 171283.346404 251297.117370 304595.994707 236690.500010 113318.576689 39102.242324 11781.258477 2693.202778 143.946020 0.000000 0.000000 0.000000 0.000000 0.000000 0.000000 0.000000 0.000000 0.000000 111227.620071 437746.394994 438846.637321 378439.615000 374602.557621 384037.411637 340914.523517 294877.955418 334091.875599 378646.507869 362608.941328 287287.801364 259380.962124 282113.951527 353327.149934 368234.429670 312130.123440 240350.793566 210832.366888 227346.143889 241727.682716 225768.939787 213356.669974 218677.873272 237828.824361 217426.567779 149928.969114 104050.161764 123573.110676 205817.641739 270213.148534 221866.440098 111962.309896 40613.676284 13075.453746 3817.467152 1135.650363 0.000000 0.000000 0.000000 0.000000 0.000000 0.000000 0.000000 0.000000 0.000000 107791.252319 403006.306148 392326.890125 358033.905700 339055.113792 420393.793443 369547.967274 326179.830274 326638.842049 325143.330904 313663.984118 298416.049053 276465.409829 250222.258505 239951.202705 249791.275169 259634.546906 267752.568601 289164.327512 294195.396669 246445.295037 187008.880177 164688.494352 192708.301135 253945.786968 259375.213250 187858.461207 130027.699331 141059.211835 212184.653165 263922.903400 212575.873967 107649.858411 39660.920189 12927.012973 3765.431974 941.117984 0.000000 0.000000 0.000000 0.000000 0.000000 0.000000 0.000000 0.000000 0.000000 95456.600498 368812.459330 386511.289183 359181.438054 376998.442463 355540.402560 330392.237083 313012.903020 311770.493042 298829.855831 270235.504432 274832.386112 303958.224798 338463.337856 343125.605854 307015.160087 242076.880745 205230.266938 235388.471774 276422.961754 268552.253795 225662.380136 188034.353251 190461.610087 228037.123720 223780.889413 163338.483152 119823.500539 136176.999971 204047.413047 249055.011700 197914.560416 100484.262877 37876.879344 12825.771870 4049.143565 1170.466209 0.000000 0.000000 0.000000 0.000000 0.000000 0.000000 0.000000 0.000000 0.000000 101767.083430 425207.749261 407966.589505 390873.504498 379860.972419 361064.923538 300951.784772 295121.712797 343859.444895 383251.423119 358148.683422 292404.142046 245853.085276 243509.672925 271814.704498 283154.339699 262619.473361 249663.161166 259439.798610 259893.033383 235303.871810 201432.972496 179582.900345 196260.241909 237926.645854 229785.003797 167365.585583 125092.004323 141844.097345 203753.968941 236914.784724 181561.195579 90981.296176 34713.307522 12002.763986 3848.427451 1173.697640 0.000000 0.000000 0.000000 0.000000 0.000000 0.000000 0.000000 0.000000 0.000000 93273.823302 405975.563224 335662.118382 354075.937052 330898.603622 374122.933500 328938.266507 298003.237051 299357.706549 298033.641599 275873.651243 258768.805118 274350.790979 314050.087294 317098.497665 273728.471172 228544.041439 222719.724191 245870.934990 267704.705219 252546.435884 207642.733806 177319.837809 189893.182682 223507.654210 212281.583756 156552.377272 122937.636310 143849.343993 200772.181439 222202.484044 163411.243424 80585.297960 31114.289667 11015.204695 3602.852640 1057.287689 0.000000 0.000000 0.000000 0.000000 0.000000 0.000000 0.000000 0.000000 0.000000 80391.889512 340781.179096 340239.534577 363390.518612 376599.063032 327330.615915 283653.018854 280984.451449 309591.538824 331431.844664 309928.969068 264547.042149 256366.911362 282046.577918 285928.480787 256366.628107 230371.486730 224141.428488 240763.574386 257387.355480 235904.903874 192534.296076 175723.508744 195294.496508 222785.737944 204504.731725 150747.203884 123612.728901 147612.067883 197227.603896 205096.223994 143456.567139 69403.862997 27120.639502 9870.179289 3408.754298 1156.787913 99.642016 0.000000 0.000000 0.000000 0.000000 0.000000 0.000000 0.000000 0.000000 78594.661754 323572.011303 338477.854765 333043.681983 348255.796515 331476.197100 280473.633426 274324.429666 291766.397681 302773.066470 285934.883938 253464.247946 248913.425567 281587.062901 285742.518731 245426.208184 208100.040263 213257.374411 250833.364468 265780.584545 226850.403460 179989.899252 173471.784797 194060.927511 211946.207583 188760.278233 140831.495196 122453.767317 149752.937573 191093.494619 185910.783399 123232.408098 58402.465422 23005.258557 8494.900075 2948.795082 966.841788 44.032282 0.000000 0.000000 0.000000 0.000000 0.000000 0.000000 0.000000 0.000000 78778.879443 328109.157602 338128.864834 282509.302581 299548.204275 268490.328438 282953.854516 300660.513181 294016.532765 273469.927476 258957.154196 247630.003549 252820.792012 274640.796776 276778.922464 236923.652431 194903.507856 205514.165919 244556.389570 250594.486419 205024.122532 167435.936288 174079.901499 195873.337456 203427.709044 174512.518286 132013.072599 121768.922993 150382.177920 181140.092520 163867.552196 102926.941017 48010.983757 19171.022254 7283.583777 2662.109796 968.829808 155.990181 0.000000 0.000000 0.000000 0.000000 0.000000 0.000000 0.000000 0.000000 71621.722219 327104.707527 289666.984252 263554.037304 273800.863557 267459.770185 280078.747831 289686.825848 275713.783897 242726.867656 242094.043007 267669.263564 271908.577130 254847.291144 223563.906987 195769.675982 195948.122597 222404.495793 246509.394799 235059.671891 188902.053068 159763.666619 173611.941054 192834.811314 189256.441770 156469.476917 121906.698708 120457.196600 148882.370960 167850.578486 140410.507671 83478.498849 38360.676149 15463.971835 5946.526651 2174.591495 774.043837 93.425740 0.000000 0.000000 0.000000 0.000000 0.000000 0.000000 0.000000 0.000000 78004.841270 339797.430666 263415.213857 264939.491543 265744.213278 263203.810242 257785.586859 270461.204237 257568.595949 236055.094168 236624.723771 247828.338156 242388.935297 224415.323234 202139.765115 188846.185920 198077.847313 217900.009115 219265.644341 194547.271780 161981.825163 150494.781202 172424.034533 187607.933496 172873.728816 137986.905100 112359.869871 118319.184152 143497.208440 149994.618254 115985.429207 65708.770232 29967.791401 12285.080581 4853.790195 1843.185766 698.235407 111.002344 4.829501 0.000000 0.000000 0.000000 0.000000 0.000000 0.000000 0.000000 71750.232797 319409.713011 244568.648686 237213.161642 242109.699838 224327.652693 216474.992689 208693.636708 211808.182863 226979.348741 227371.131472 228880.037302 209720.630743 184170.602428 177722.045116 190509.316092 203596.539517 210166.151864 202835.788424 177243.500506 154082.339722 153914.776774 175524.240136 178501.311210 151462.606436 118026.336559 102661.491025 114129.291072 133392.034201 128205.925753 91545.819151 49590.977821 22438.806323 9266.649951 3669.725436 1368.653615 493.882412 27.114442 0.000000 0.000000 0.000000 0.000000 0.000000 0.000000 0.000000 0.000000 77399.437529 335637.764465 233097.863354 196641.305461 204518.752644 184890.022740 170574.033425 201977.840927 204298.662525 188180.186283 185801.627422 182745.969618 172577.349846 166821.339002 163187.624536 177241.488077 185792.756099 168065.118901 146743.049520 134070.239074 131303.919089 139875.508350 156961.843786 150377.216392 120074.643704 95864.165852 92638.332673 107515.167049 119075.315712 104872.739483 69565.333684 36404.133352 16493.419261 6950.778268 2836.932818 1098.786075 409.529072 9.200161 0.000000 0.000000 0.000000 0.000000 0.000000 0.000000 0.000000 0.000000 74935.938691 309891.615938 151054.724095 122024.210254 121341.391281 154203.511784 155222.519630 170560.516279 160909.324451 139499.983315 150070.723432 156526.001887 147622.537696 146757.260197 147899.280228 148596.204439 163217.808433 161118.495808 139087.884673 136007.462852 149763.265695 158214.415788 158422.259946 136656.782554 102928.780400 84417.661625 85773.123868 96599.554053 97688.000420 78032.355449 48191.998916 24355.046770 10873.995972 4500.392457 1749.425916 572.464992 100.840414 0.000000 0.000000 0.000000 0.000000 0.000000 0.000000 0.000000 0.000000 0.000000 65178.032564 266159.074883 115841.404597 53575.652794 52501.575392 89027.258423 87733.375548 84443.411180 103343.948514 92314.535312 100297.103430 90355.586958 94619.745714 99518.293077 99236.054627 98857.424476 87259.223362 87175.289891 90854.153674 91495.409111 103821.319152 105110.032116 93379.021482 74521.531636 56023.798761 51910.400640 60671.962690 71030.271950 69468.518702 53007.417084 32091.847983 16366.818235 7409.794328 3061.557713 1176.703221 398.443806 95.422443 0.000000 0.000000 0.000000 0.000000 0.000000 0.000000 0.000000 0.000000 0.000000 63642.141429 251936.475205 48327.464022 0.000000 43556.966017 34214.135513 50671.254663 56939.591849 43190.341492 84434.920524 87521.050686 109096.689980 113322.138738 94309.353752 83597.301166 81716.110187 92690.031431 105783.063852 128351.910301 143914.133893 153264.300574 141802.022656 112253.031792 86736.014775 71068.318880 66095.609817 66340.359716 63756.539874 52973.019034 36054.867534 19964.342051 8786.818554 2351.378615 0.000000 0.000000 0.000000 0.000000 0.000000 0.000000 0.000000 0.000000 0.000000 0.000000 0.000000 0.000000 0.000000 63131.855768 249116.188438 12929.730050 0.000000 0.000000 0.000000 19244.035757 47086.918971 0.000000 0.000000 0.000000 0.000000 10151.716723 0.000000 0.000000 0.000000 0.000000 0.000000 0.000000 0.000000 8140.158284 14483.594807 6777.455906 0.000000 0.000000 0.000000 0.000000 0.000000 0.000000 0.000000 0.000000 0.000000 0.000000 0.000000 0.000000 0.000000 0.000000 0.000000 0.000000 0.000000 0.000000 0.000000 0.000000 0.000000 0.000000 0.000000 62529.054178 223988.185852 0.000000 0.000000 0.000000 0.000000 0.000000 55256.948675 228659.721153 0.000000 0.000000 0.000000 0.000000 0.000000 39141.433407 161408.661658 0.000000 0.000000 0.000000 0.000000 0.000000 68177.549279 232084.479859 0.000000 0.000000 0.000000 0.000000 0.000000 34386.042697 116820.108969 0.000000 0.000000 0.000000 0.000000 0.000000 60139.468069 147490.759501 0.000000 0.000000 0.000000 0.000000 0.000000 42713.742768 92341.705387 0.000000 0.000000 0.000000 0.000000 0.000000 40478.317467 102016.734126 0.000000 0.000000 0.000000 0.000000 0.000000 38003.507981 78762.496535 0.000000 0.000000 0.000000 0.000000 0.000000 6105.301634 5492.290754 0.000000 0.000000 0.000000 0.000000 0.000000 7503.299817 30306.705916 0.000000 0.000000 0.000000 0.000000 0.000000 1508.002650 14538.562005 0.000000 0.000000 0.000000 0.000000 0.000000 17553.356547 51446.036470 0.000000 0.000000 0.000000 0.000000 0.000000 35675.230947 34239.457354 0.000000 0.000000 0.000000 0.000000 0.000000 6318.191466 0.000000 0.000000 0.000000 0.000000 0.000000 0.000000 0.000000 0.000000 0.000000 0.000000 0.000000 0.000000 0.000000 0.000000 0.000000 0.000000 0.000000 0.000000 0.000000 0.000000 0.000000 0.000000 0.000000 0.000000 0.000000 0.000000 0.000000 0.000000 0.000000 0.000000 0.000000 0.000000 0.000000 0.000000 0.000000 0.000000 0.000000 0.000000 0.000000 0.000000 0.000000 0.000000 0.000000 0.000000 0.000000 0.000000 0.000000 0.000000 0.000000 0.000000 0.000000 0.000000 0.000000 0.000000 0.000000 0.000000 0.000000 0.000000 0.000000 0.000000 0.000000 0.000000 0.000000 0.000000 0.000000 0.000000 0.000000 0.000000 0.000000 0.000000 0.000000 0.000000 0.000000 0.000000 0.000000 0.000000 0.000000 0.000000 0.000000 0.000000 0.000000 0.000000 0.000000 0.000000 0.000000 0.000000 0.000000 0.000000 0.000000 0.000000 0.000000 0.000000 0.000000 0.000000 0.000000 0.000000 0.000000 0.000000 0.000000 0.000000 0.000000 0.000000 0.000000 0.000000 0.000000 0.000000 0.000000 0.000000 0.000000 0.000000 0.000000 0.000000 0.000000 0.000000 0.000000 0.000000 0.000000 0.000000 0.000000 0.000000 0.000000 0.000000 0.000000 0.000000 0.000000 0.000000 0.000000 0.000000 0.000000 0.000000 0.000000 0.000000 0.000000 0.000000 0.000000 0.000000 0.000000 0.000000 0.000000 0.000000 0.000000 0.000000 0.000000 0.000000 0.000000 0.000000 0.000000 0.000000 0.000000 0.000000 0.000000 0.000000 0.000000 0.000000 0.000000 0.000000 0.000000 0.000000 0.000000 0.000000 0.000000 0.000000 0.000000 0.000000 0.000000 0.000000 0.000000 0.000000 0.000000 0.000000 0.000000 0.000000 0.000000 0.000000 0.000000 0.000000 0.000000 0.000000 0.000000 0.000000 0.000000 0.000000 0.000000 0.000000 0.000000 0.000000 0.000000 0.000000 0.000000 0.000000 0.000000 0.000000 0.000000 0.000000 0.000000 0.000000 0.000000 0.000000 0.000000 0.000000 0.000000 0.000000 0.000000 0.000000 0.000000 0.000000 0.000000 0.000000 0.000000 0.000000 0.000000 0.000000 0.000000 0.000000 0.000000 0.000000 0.000000 0.000000 0.000000 0.000000 0.000000 0.000000 0.000000 0.000000 0.000000 0.000000 0.000000 0.000000 0.000000 0.000000 0.000000 0.000000 0.000000 0.000000 0.000000 0.000000 0.000000 0.000000 0.000000 0.000000 0.000000 0.000000 0.000000 0.000000 0.000000 0.000000 0.000000 0.000000 0.000000 0.000000 0.000000 0.000000 0.000000 0.000000 0.000000 0.000000 0.000000 0.000000 0.000000 0.000000 0.000000 0.000000 0.000000 0.000000 0.000000 0.000000 0.000000 0.000000 0.000000 0.000000 0.000000 0.000000 0.000000 0.000000 0.000000 0.000000 0.000000 0.000000 0.000000 0.000000 0.000000 0.000000 0.000000 0.000000 0.000000 0.000000 0.000000 0.000000 0.000000 0.000000 0.000000 0.000000 0.000000 0.000000 0.000000 0.000000 0.000000 0.000000 0.000000 0.000000 0.000000 0.000000 0.000000 0.000000 0.000000 0.000000 0.000000 0.000000 0.000000 0.000000 0.000000 0.000000 0.000000 0.000000 0.000000 0.000000 0.000000 0.000000 0.000000 0.000000 0.000000 0.000000 0.000000 0.000000 0.000000 0.000000 0.000000 0.000000 0.000000 0.000000 0.000000 0.000000 0.000000 0.000000 0.000000 0.000000 0.000000 0.000000 0.000000 0.000000 0.000000 0.000000 0.000000 0.000000 0.000000 0.000000 0.000000 0.000000 0.000000 0.000000 0.000000 0.000000 0.000000 0.000000 0.000000 0.000000 0.000000 0.000000 0.000000 0.000000 0.000000 0.000000 0.000000 0.000000 0.000000 0.000000 0.000000 0.000000 0.000000 0.000000 0.000000 0.000000 0.000000 0.000000 0.000000 0.000000 0.000000 0.000000 0.000000 0.000000 0.000000 0.000000 0.000000 0.000000 0.000000 0.000000 0.000000 0.000000 0.000000 0.000000 0.000000 0.000000 0.000000 0.000000 0.000000 0.000000 0.000000 0.000000 0.000000 0.000000 0.000000 0.000000 0.000000 0.000000 0.000000 0.000000 0.000000 0.000000 0.000000 0.000000 0.000000 0.000000 0.000000 0.000000 0.000000 0.000000 0.000000 0.000000 0.000000 0.000000 0.000000 0.000000 0.000000 0.000000 0.000000 0.000000 0.000000 0.000000 0.000000 0.000000 0.000000 0.000000 0.000000 0.000000 0.000000 0.000000 0.000000 0.000000 0.000000 0.000000 0.000000 0.000000 0.000000 0.000000 0.000000 0.000000 0.000000 0.000000 0.000000 0.000000 0.000000 0.000000 0.000000 0.000000 0.000000 0.000000 0.000000 0.000000 0.000000 0.000000 0.000000 0.000000 0.000000 0.000000 0.000000 0.000000 0.000000 0.000000 0.000000 0.000000 0.000000 0.000000 0.000000 0.000000 0.000000 0.000000 0.000000 0.000000 0.000000 0.000000 0.000000 0.000000 0.000000 0.000000 0.000000 0.000000 0.000000 0.000000 0.000000 0.000000 0.000000 0.000000 0.000000 0.000000 0.000000 0.000000 0.000000 0.000000 0.000000 0.000000 0.000000 0.000000 0.000000 0.000000 0.000000 0.000000 0.000000 0.000000 0.000000 0.000000 0.000000 0.000000 0.000000 0.000000 0.000000 0.000000 0.000000 0.000000 0.000000 0.000000 0.000000 0.000000 0.000000 0.000000 0.000000 0.000000 0.000000 0.000000 0.000000 0.000000 0.000000 0.000000 0.000000 0.000000 0.000000 0.000000 0.000000 0.000000 0.000000 0.000000 0.000000 0.000000 0.000000 0.000000 0.000000 0.000000 0.000000 0.000000 0.000000 0.000000 0.000000 0.000000 0.000000 0.000000 0.000000 0.000000 0.000000 0.000000 0.000000 0.000000 0.000000 0.000000 0.000000 0.000000 0.000000 0.000000 0.000000 0.000000 0.000000 0.000000 0.000000 0.000000 0.000000 0.000000 0.000000 0.000000 0.000000 0.000000 0.000000 0.000000 0.000000 0.000000 0.000000 0.000000 0.000000 0.000000 0.000000 0.000000 0.000000 0.000000 0.000000 0.000000 0.000000 0.000000 0.000000 0.000000 0.000000 0.000000 0.000000 0.000000 0.000000 0.000000 0.000000 0.000000 0.000000 0.000000 0.000000 0.000000 0.000000 0.000000 0.000000 0.000000 0.000000 0.000000 0.000000 0.000000 0.000000 0.000000 0.000000 0.000000 0.000000 0.000000 0.000000 0.000000 0.000000 0.000000 0.000000 0.000000 0.000000 0.000000 0.000000 0.000000 0.000000 0.000000 0.000000 0.000000 0.000000
</DataArray>
<DataArray type="Float64" Name="Velocity" NumberOfComponents="3" format="ascii">