<VTKFile type="PolyData">
<PolyData>
<Piece NumberOfPoints="1840" NumberOfVerts="1840" NumberOfLines="0" NumberOfStrips="0" NumberOfPolys="0">
<PointData>
<DataArray type="Float64" Name="Pressure" format="ascii">
 0.000000 0.000000 0.000000 0.000000 0.000000 0.000000 0.000000 0.000000 0.000000 0.000000 0.000000 0.000000 0.000000 0.000000 0.000000 0.000000 0.000000 0.000000 0.000000 0.000000 0.000000 0.000000 0.000000 0.000000 0.000000 0.000000 0.000000 0.000000 0.000000 0.000000 0.000000 0.000000 0.000000 0.000000 0.000000 0.000000 0.000000 0.000000 0.000000 0.000000 0.000000 0.000000 0.000000 0.000000 0.000000 0.000000 0.000000 0.000000 0.000000 0.000000 0.000000 0.000000 0.000000 0.000000 0.000000 0.000000 0.000000 0.000000 0.000000 0.000000 0.000000 0.000000 0.000000 0.000000 0.000000 0.000000 0.000000 0.000000 0.000000 0.000000 0.000000 0.000000 0.000000 0.000000 0.000000 0.000000 0.000000 0.000000 0.000000 0.000000 0.000000 0.000000 0.000000 0.000000 0.000000 0.000000 0.000000 0.000000 0.000000 0.000000 0.000000 0.000000 0.000000 0.000000 0.000000 0.000000 0.000000 0.000000 0.000000 0.000000 0.000000 0.000000 0.000000 0.000000 0.000000 0.000000 0.000000 0.000000 0.000000 0.000000 0.000000 0.000000 0.000000 0.000000 0.000000 0.000000 2519.881203 8979.423031 3845.420476 2152.871381 0.000000 7655.839122 27735.863373 10729.328112 0.000000 0.000000 0.000000 0.000000 0.000000 0.000000 0.000000 0.000000 0.000000 0.000000 0.000000 0.000000 0.000000 0.000000 0.000000 0.000000 0.000000 0.000000 0.000000 0.000000 0.000000 0.000000 0.000000 0.000000 0.000000 0.000000 0.000000 0.000000 0.000000 0.000000 0.000000 0.000000 0.000000 0.000000 0.000000 0.000000 0.000000 0.000000 0.000000 0.000000 0.000000 0.000000 0.000000 0.000000 0.000000 0.000000 0.000000 0.000000 0.000000 33227.225665 89248.950976 40890.822114 22864.941740 0.000000 0.000000 12833.857072 0.000000 0.000000 0.000000 0.000000 0.000000 0.000000 0.000000 0.000000 0.000000 0.000000 0.000000 0.000000 0.000000 0.000000 0.000000 0.000000 0.000000 0.000000 0.000000 0.000000 0.000000 0.000000 0.000000 0.000000 0.000000 0.000000 0.000000 0.000000 0.000000 0.000000 0.000000 0.000000 0.000000 0.000000 0.000000 0.000000 0.000000 0.000000 0.000000 0.000000 0.000000 0.000000 0.000000 0.000000 0.000000 0.000000 0.000000 0.000000 0.000000 0.000000 46729.380169 71445.594137 91943.605136 0.000000 0.000000 0.000000 0.000000 0.000000 0.000000 0.000000 0.000000 0.000000 60641.422986 0.000000 0.000000 0.000000 46388.011587 81501.991259 0.000000 0.000000 0.000000 9227.322736 0.000000 0.000000 13978.257487 94914.675489 42166.273231 0.000000 15971.737012 0.000000 38628.471352 46421.340406 20492.218658 0.000000 0.000000 0.000000 0.000000 0.000000 0.000000 0.000000 0.000000 0.000000 0.000000 0.000000 0.000000 0.000000 7825.363607 0.000000 43676.760497 12641.599680 22328.574503 93532.625601 84468.352363 5091.554780 0.000000 38626.028611 61145.566623 101425.235970 2665.061638 0.000000 0.000000 5069.306492 0.000000 9034.630787 0.000000 0.000000 0.000000 55216.617751 0.000000 58520.935639 0.000000 57727.268410 0.000000 29632.764103 0.000000 0.000000 39245.514780 10382.318420 87451.511377 0.000000 0.000000 0.000000 3684.622510 133609.658747 37441.214443 41536.487523 0.000000 0.000000 0.000000 0.000000 0.000000 0.000000 16308.272868 32267.711711 18100.433190 4240.259418 0.000000 89841.758246 55982.253218 0.000000 56612.067119 8565.044300 0.000000 31770.354415 0.000000 0.000000 0.000000 96143.798979 0.000000 0.000000 0.000000 81960.894250 0.000000 19834.947263 117829.877663 69906.608229 0.000000 0.000000 72914.060599 0.000000 58901.521440 159515.977757 0.000000 44067.186093 47878.984482 6555.679720 0.000000 0.000000 5528.778228 0.000000 27075.039455 0.000000 0.000000 0.000000 0.000000 0.000000 0.000000 0.000000 18572.567390 42899.476840 22717.666726 302041.867583 0.000000 39945.397481 0.000000 151316.725652 0.000000 0.000000 0.000000 95803.983609 15570.007149 0.000000 104034.639070 182528.034914 38494.644824 116848.928708 28971.037678 0.000000 0.000000 0.000000 0.000000 0.000000 50177.099312 63183.314038 138755.577290 96293.701328 25470.735696 0.000000 0.000000 60839.480216 0.000000 49317.668896 16948.195106 10317.972053 70939.868986 0.000000 46388.937432 52378.965796 15175.719587 0.000000 0.000000 0.000000 0.000000 0.000000 0.000000 0.000000 167454.927374 36592.131968 470227.111399 292418.467710 0.000000 0.000000 5790.496925 7927.898242 82071.528909 15649.423389 0.000000 110471.076953 0.000000 229278.478319 184624.242627 0.000000 0.000000 48995.008550 0.000000 187075.957492 0.000000 0.000000 0.000000 0.000000 93862.880425 16844.802492 0.000000 84202.876755 113937.032857 0.000000 37897.368344 0.000000 34502.771905 0.000000 26091.196385 15108.116348 17168.629542 0.000000 34468.371163 0.000000 0.000000 0.000000 0.000000 0.000000 0.000000 0.000000 17467.069729 0.000000 0.000000 0.000000 0.000000 41876.198234 63694.379133 0.000000 0.000000 0.000000 165741.661908 0.000000 122827.510262 31575.268508 19436.805527 0.000000 144674.561489 9232.586108 145910.277224 75659.416771 0.000000 197516.207540 65375.585863 0.000000 229204.178678 0.000000 0.000000 0.000000 11972.685388 13764.743522 5423.938771 0.000000 0.000000 70847.263156 4686.943462 127314.626651 15796.855342 4139.191373 126536.204567 0.000000 0.000000 0.000000 0.000000 0.000000 17926.467389 59620.244736 0.000000 0.000000 0.000000 0.000000 0.000000 57382.858277 129440.222375 0.000000 28260.061202 114060.229037 0.000000 561664.855348 0.000000 23912.470053 0.000000 203489.902215 74903.000320 117304.555333 90725.231024 0.000000 0.000000 249516.621643 0.000000 0.000000 221103.024355 0.000000 0.000000 250026.142670 0.000000 0.000000 71498.399972 179251.991451 0.000000 0.000000 79625.047887 0.000000 124518.501328 0.000000 0.000000 0.000000 0.000000 0.000000 0.000000 0.000000 27818.366924 63802.721376 72100.414860 200493.498211 63789.114319 71615.325267 0.000000 0.000000 443447.572459 204440.022484 22098.554615 0.000000 0.000000 70865.588194 0.000000 0.000000 0.000000 0.000000 47276.817529 0.000000 99431.088628 495246.625497 0.000000 0.000000 315335.851241 0.000000 0.000000 38083.276493 0.000000 90700.789457 0.000000 12758.650711 0.000000 0.000000 0.000000 28113.073365 70820.786461 0.000000 0.000000 0.000000 0.000000 0.000000 0.000000 0.000000 0.000000 0.000000 14272.402860 2474.965330 0.000000 65282.867398 48062.226855 0.000000 29907.716132 54851.532815 0.000000 0.000000 116188.690941 0.000000 198412.500369 0.000000 0.000000 0.000000 0.000000 7492.063586 0.000000 201687.817814 126.717841 0.000000 0.000000 0.000000 5298.893073 0.000000 14424.526443 77348.464594 68818.323173 0.000000 0.000000 66833.849040 0.000000 0.000000 170764.360800 101089.056939 226566.406942 7323.484734 0.000000 0.000000 0.000000 0.000000 0.000000 0.000000 0.000000 0.000000 38823.369427 81704.414242 0.000000 0.000000 34156.886348 0.000000 0.000000 0.000000 0.000000 315766.559449 0.000000 0.000000 9500.795565 406683.392353 0.000000 152426.755876 0.000000 4874.617771 0.000000 0.000000 53149.819798 100434.996634 0.000000 41221.223728 48443.006786 0.000000 0.000000 0.000000 0.000000 0.000000 0.000000 0.000000 68349.078702 0.000000 0.000000 81624.857164 31483.282387 41605.166603 0.000000 70776.655957 26180.917352 0.000000 0.000000 0.000000 0.000000 0.000000 21658.553124 48270.977125 0.000000 0.000000 0.000000 0.000000 0.000000 0.000000 0.000000 0.000000 0.000000 0.000000 0.000000 0.000000 0.000000 0.000000 0.000000 0.000000 109941.345263 0.000000 0.000000 0.000000 116040.852352 0.000000 95539.673854 0.000000 0.000000 0.000000 0.000000 0.000000 0.000000 0.000000 0.000000 0.000000 371.766611 0.000000 10310.650537 0.000000 0.000000 28903.841562 0.000000 0.000000 0.000000 0.000000 0.000000 0.000000 4014.818018 20401.671422 0.000000 0.000000 29556.399294 0.000000 0.000000 0.000000 0.000000 0.000000 0.000000 0.000000 106813.904817 309601.740313 0.000000 0.000000 0.000000 0.000000 119353.111038 0.000000 0.000000 82166.414763 52499.497167 0.000000 88989.695522 0.000000 591175.829976 11727.265451 0.000000 0.000000 0.000000 418633.572309 0.000000 0.000000 12745.544533 0.000000 0.000000 7013.087659 0.000000 0.000000 0.000000 0.000000 0.000000 0.000000 0.000000 0.000000 13154.940624 46831.614321 0.000000 0.000000 0.000000 0.000000 126637.120539 0.000000 0.000000 0.000000 0.000000 0.000000 166766.350262 0.000000 0.000000 0.000000 172855.199850 0.000000 0.000000 0.000000 0.000000 0.000000 119766.022569 0.000000 0.000000 61836.438279 0.000000 52508.773436 0.000000 0.000000 0.000000 0.000000 0.000000 0.000000 49393.158210 0.000000 0.000000 40371.370440 0.000000 0.000000 0.000000 0.000000 0.000000 0.000000 0.000000 0.000000 46064.960914 36267.628200 0.000000 0.000000 0.000000 0.000000 47939.006849 0.000000 0.000000 0.000000 0.000000 0.000000 0.000000 0.000000 26247.806814 0.000000 0.000000 0.000000 160626.040307 0.000000 0.000000 0.000000 0.000000 0.000000 0.000000 0.000000 153187.202366 0.000000 0.000000 0.000000 39455.987704 0.000000 0.000000 0.000000 0.000000 62245.604615 0.000000 181471.577748 41515.188264 0.000000 36597.817135 0.000000 0.000000 0.000000 0.000000 0.000000 38686.585305 44333.508425 0.000000 0.000000 0.000000 0.000000 0.000000 0.000000 0.000000 0.000000 0.000000 71814.387606 0.000000 0.000000 0.000000 0.000000 0.000000 91264.022371 17057.708154 0.000000 0.000000 0.000000 0.000000 0.000000 0.000000 0.000000 0.000000 0.000000 0.000000 0.000000 42591.796704 0.000000 0.000000 0.000000 0.000000 23891.524258 212701.482872 187167.665248 191338.848945 0.000000 83134.897340 0.000000 0.000000 0.000000 0.000000 0.000000 33808.223408 100031.615112 0.000000 0.000000 0.000000 0.000000 0.000000 0.000000 0.000000 0.000000 0.000000 0.000000 0.000000 0.000000 0.000000 0.000000 0.000000 0.000000 0.000000 0.000000 0.000000 0.000000 0.000000 55859.045937 0.000000 0.000000 16963.709838 0.000000 0.000000 0.000000 96581.721364 0.000000 0.000000 0.000000 0.000000 324635.323749 64344.765519 0.000000 183353.619285 0.000000 5155.345705 0.000000 0.000000 0.000000 0.000000 0.000000 17069.177273 31252.955069 0.000000 200992.364023 205970.902208 0.000000 0.000000 26525.380460 0.000000 220175.573019 0.000000 0.000000 0.000000 0.000000 0.000000 0.000000 0.000000 0.000000 0.000000 0.000000 0.000000 0.000000 0.000000 0.000000 0.000000 0.000000 0.000000 0.000000 0.000000 0.000000 0.000000 0.000000 0.000000 0.000000 0.000000 0.000000 0.000000 29923.317005 0.000000 0.000000 0.000000 0.000000 0.000000 0.000000 0.000000 0.000000 6039.873937 24721.550250 0.000000 0.000000 0.000000 834.572012 0.000000 0.000000 219527.101996 3114.520109 52238.241612 0.000000 19390.554046 221611.096924 0.000000 11846.831559 0.000000 0.000000 0.000000 0.000000 0.000000 0.000000 0.000000 0.000000 0.000000 0.000000 0.000000 0.000000 0.000000 0.000000 0.000000 0.000000 0.000000 0.000000 0.000000 0.000000 0.000000 0.000000 329454.635968 423907.213379 137270.209546 0.000000 0.000000 0.000000 0.000000 0.000000 10288.878894 60544.217092 221779.305066 163552.587117 0.000000 108835.434685 0.000000 0.000000 26079.220688 0.000000 0.000000 0.000000 22974.515230 0.000000 0.000000 44594.739256 0.000000 159784.666712 0.000000 163015.194269 0.000000 137243.790503 0.000000 63042.562466 0.000000 0.000000 0.000000 0.000000 0.000000 0.000000 0.000000 0.000000 0.000000 0.000000 0.000000 0.000000 318863.071597 0.000000 0.000000 6892.515254 0.000000 0.000000 0.000000 0.000000 0.000000 0.000000 7974.774833 63950.846299 0.000000 0.000000 0.000000 0.000000 0.000000 9732.590108 63537.363801 0.000000 0.000000 0.000000 0.000000 0.000000 5170.578886 41737.959420 0.000000 0.000000 0.000000 0.000000 0.000000 3581.994730 20874.153106 0.000000 0.000000 0.000000 0.000000 0.000000 16374.837215 74267.286208 0.000000 0.000000 0.000000 0.000000 0.000000 15222.627632 40229.945152 0.000000 0.000000 0.000000 0.000000 0.000000 6499.444145 3801.243522 0.000000 0.000000 0.000000 0.000000 0.000000 20094.593453 55015.660365 0.000000 0.000000 0.000000 0.000000 0.000000 41441.861786 136853.140227 0.000000 0.000000 0.000000 0.000000 0.000000 12271.682296 22868.574135 0.000000 0.000000 0.000000 0.000000 0.000000 0.000000 0.000000 0.000000 0.000000 0.000000 0.000000 0.000000 6885.836849 20661.930323 0.000000 0.000000 0.000000 0.000000 0.000000 13993.755393 78082.621912 0.000000 0.000000 0.000000 0.000000 0.000000 14405.123796 60755.470771 0.000000 0.000000 0.000000 0.000000 0.000000 47618.535679 156920.684178 0.000000 0.000000 0.000000 0.000000 0.000000 47090.987330 173239.598391 0.000000 0.000000 0.000000 0.000000 0.000000 42734.194754 134817.582611 0.000000 0.000000 0.000000 0.000000 0.000000 64532.853614 95029.227671 0.000000 0.000000 0.000000 0.000000 0.000000 45199.249420 86323.264178 0.000000 0.000000 0.000000 0.000000 0.000000 58803.672247 187100.484183 0.000000 0.000000 0.000000 0.000000 0.000000 57080.891218 70683.426498 0.000000 0.000000 0.000000 0.000000 0.000000 24783.470069 0.000000 0.000000 0.000000 0.000000 0.000000 0.000000 12237.980437 0.000000 0.000000 0.000000 0.000000 0.000000 0.000000 19823.034530 8112.051822 0.000000 0.000000 0.000000 0.000000 0.000000 21047.637349 14622.998852 0.000000 0.000000 0.000000 0.000000 0.000000 80099.042248 317221.727757 0.000000 0.000000 0.000000 0.000000 0.000000 54358.956504 258322.167777 0.000000 0.000000 0.000000 0.000000 0.000000 55329.030726 139692.938255 0.000000 0.000000 0.000000 0.000000 0.000000 38731.864714 99626.766050 0.000000 0.000000 0.000000 0.000000 0.000000 31509.647630 131849.946081 0.000000 0.000000 0.000000 0.000000 0.000000 26424.427734 150728.891858 0.000000 0.000000 0.000000 0.000000 0.000000 9129.160354 101299.966972 0.000000 0.000000 0.000000 0.000000 0.000000 14006.425351 114069.749540 0.000000 0.000000 0.000000 0.000000 0.000000 19137.231352 144628.963587 0.000000 0.000000 0.000000 0.000000 0.000000 10889.645937 103681.982121 0.000000 0.000000 0.000000 0.000000 0.000000 49214.949820 234298.997784 0.000000 0.000000 0.000000 0.000000 0.000000 58467.939284 162615.624892 0.000000 0.000000 0.000000 0.000000 0.000000 10480.465132 4739.018039 0.000000 0.000000 0.000000 0.000000 0.000000 14263.971186 31435.457837 0.000000 0.000000 0.000000 0.000000 0.000000 12071.954555 61970.889858 0.000000 0.000000 0.000000 0.000000 0.000000 984.202016 25129.528867 0.000000 0.000000 0.000000 0.000000 0.000000 8171.782167 56300.195698 0.000000 0.000000 0.000000 0.000000 0.000000 6379.249195 66540.814249 0.000000 0.000000 0.000000 0.000000 0.000000 1474.964965 53197.615153 0.000000 0.000000 0.000000 0.000000 0.000000 13255.255456 35385.866880 0.000000 0.000000 0.000000 0.000000 0.000000 12367.112849 0.000000 0.000000 0.000000 0.000000 0.000000 0.000000 29511.664835 10784.310137 0.000000 0.000000 0.000000 0.000000 0.000000 56048.534003 207459.000865 0.000000 0.000000 0.000000 0.000000 0.000000 19881.909712 201156.223259 0.000000 0.000000 0.000000 0.000000 0.000000 17907.507007 89873.378686 0.000000 0.000000 0.000000 0.000000 0.000000 59022.237588 54019.954168 0.000000 0.000000 0.000000 0.000000 0.000000 59219.180352 54417.499058 0.000000 0.000000 0.000000 0.000000 0.000000 32980.699064 22509.570010 0.000000 0.000000 0.000000 0.000000 0.000000 11682.727890 8480.970956 0.000000 0.000000 0.000000 0.000000 0.000000 24411.220004 63792.758262 0.000000 0.000000 0.000000 0.000000 0.000000 42511.403347 107483.967167 0.000000 0.000000 0.000000 0.000000 0.000000 17429.245463 25326.323253 0.000000 0.000000 0.000000 0.000000 0.000000 5985.991881 2295.972869 0.000000 0.000000 0.000000 0.000000 0.000000 0.000000 0.000000 0.000000 0.000000 0.000000 0.000000 0.000000 0.000000 0.000000 0.000000 0.000000 0.000000 0.000000 0.000000 0.000000 0.000000 0.000000 0.000000 0.000000 0.000000 0.000000 0.000000 0.000000 0.000000 0.000000 0.000000 0.000000 0.000000 0.000000 0.000000 0.000000 0.000000 0.000000 0.000000 0.000000 5385.364616 0.000000 0.000000 0.000000 0.000000 0.000000 0.000000 10039.746778 5859.881892 0.000000 0.000000 0.000000 0.000000 0.000000 0.000000 0.000000 0.000000 0.000000 0.000000 0.000000 0.000000 0.000000 0.000000 0.000000 0.000000 0.000000 0.000000 0.000000 382.492433 0.000000 0.000000 0.000000 0.000000 0.000000 0.000000 32347.268571 70068.760907 0.000000 0.000000 0.000000 0.000000 0.000000 47849.086453 83399.268167 0.000000 0.000000 0.000000 0.000000 0.000000 7685.198257 12701.678545 0.000000 0.000000 0.000000 0.000000 0.000000 2307.079893 16268.544651 0.000000 0.000000 0.000000 0.000000 0.000000 8828.524392 65738.666003 0.000000 0.000000 0.000000 0.000000 0.000000 869.972897 8494.539005 0.000000 0.000000 0.000000 0.000000 0.000000 25775.281770 98833.296149 0.000000 0.000000 0.000000 0.000000 0.000000 75708.904617 434561.845447 0.000000 0.000000 0.000000 0.000000 0.000000 81626.499048 386212.999839 0.000000 0.000000 0.000000 0.000000 0.000000 52496.295637 289447.794095 0.000000 0.000000 0.000000 0.000000 0.000000 16739.330379 38657.333734 0.000000 0.000000 0.000000 0.000000 0.000000 51203.615928 145644.152522 0.000000 0.000000 0.000000 0.000000 0.000000 71985.333027 321201.956123 0.000000 0.000000 0.000000 0.000000 0.000000 19961.010949 62487.641482 77067.445861 58258.870125 0.000000 0.000000 7961.131434 0.000000 0.000000 17473.336022 0.000000 0.000000 0.000000 0.000000 0.000000 0.000000 0.000000 11198.511193 0.000000 0.000000 0.000000 0.000000 0.000000 0.000000 0.000000 0.000000 0.000000 0.000000 0.000000 0.000000 0.000000 0.000000 0.000000 0.000000 0.000000 0.000000 0.000000 0.000000 0.000000 0.000000 0.000000 0.000000 0.000000 0.000000 0.000000 0.000000 0.000000 0.000000 0.000000 0.000000 0.000000 0.000000 0.000000 0.000000 0.000000 0.000000 0.000000 0.000000 0.000000 0.000000 0.000000 0.000000 0.000000 0.000000 0.000000 0.000000 0.000000 0.000000 0.000000 0.000000 0.000000 0.000000 0.000000 0.000000 0.000000 0.000000 0.000000 0.000000 0.000000 0.000000 0.000000 0.000000 0.000000 0.000000 0.000000 0.000000 0.000000 0.000000 0.000000 0.000000 0.000000 0.000000 0.000000 0.000000 0.000000 0.000000 0.000000 0.000000 0.000000 0.000000 0.000000 0.000000 0.000000 0.000000 0.000000 0.000000 0.000000 0.000000 0.000000 0.000000 0.000000 0.000000 0.000000 0.000000 0.000000 0.000000 0.000000 0.000000 0.000000 0.000000 0.000000 0.000000 0.000000 0.000000 0.000000 0.000000 0.000000 0.000000 0.000000 0.000000 0.000000 0.000000 0.000000 0.000000 0.000000 0.000000 0.000000 0.000000 0.000000 0.000000 0.000000 0.000000 0.000000 0.000000 0.000000 0.000000 0.000000 0.000000 0.000000 0.000000 0.000000 0.000000 0.000000 0.000000 0.000000 0.000000 0.000000 0.000000 0.000000 0.000000 0.000000 0.000000 0.000000 0.000000 0.000000 0.000000 0.000000 0.000000 0.000000
</DataArray>
<DataArray type="Float64" Name="Velocity" NumberOfComponents="3" format="ascii">