<VTKFile type="PolyData">
<PolyData>
<Piece NumberOfPoints="1840" NumberOfVerts="1840" NumberOfLines="0" NumberOfStrips="0" NumberOfPolys="0">
<PointData>
<DataArray type="Float64" Name="Pressure" format="ascii">
 0.000000 0.000000 0.000000 0.000000 0.000000 0.000000 0.000000 0.000000 0.000000 0.000000 0.000000 0.000000 0.000000 0.000000 0.000000 0.000000 0.000000 0.000000 0.000000 0.000000 0.000000 0.000000 0.000000 0.000000 0.000000 0.000000 0.000000 0.000000 0.000000 0.000000 0.000000 0.000000 0.000000 0.000000 0.000000 0.000000 0.000000 0.000000 0.000000 0.000000 0.000000 0.000000 0.000000 0.000000 0.000000 0.000000 0.000000 0.000000 0.000000 0.000000 0.000000 0.000000 0.000000 0.000000 0.000000 0.000000 0.000000 0.000000 0.000000 0.000000 0.000000 0.000000 0.000000 0.000000 0.000000 0.000000 0.000000 0.000000 0.000000 0.000000 0.000000 0.000000 0.000000 0.000000 0.000000 0.000000 0.000000 0.000000 0.000000 0.000000 0.000000 0.000000 0.000000 0.000000 0.000000 0.000000 0.000000 0.000000 0.000000 0.000000 0.000000 0.000000 0.000000 0.000000 0.000000 0.000000 0.000000 0.000000 0.000000 0.000000 0.000000 0.000000 0.000000 0.000000 0.000000 0.000000 0.000000 0.000000 0.000000 0.000000 0.000000 0.000000 0.000000 0.000000 0.000000 0.000000 0.000000 2102.178741 21431.848132 22399.865190 3088.423963 20619.099450 17236.006779 0.000000 0.000000 0.000000 0.000000 0.000000 0.000000 0.000000 0.000000 0.000000 0.000000 0.000000 0.000000 0.000000 0.000000 0.000000 0.000000 0.000000 0.000000 0.000000 0.000000 0.000000 0.000000 0.000000 0.000000 0.000000 0.000000 0.000000 0.000000 0.000000 0.000000 0.000000 0.000000 0.000000 0.000000 0.000000 0.000000 0.000000 0.000000 0.000000 0.000000 0.000000 0.000000 0.000000 0.000000 0.000000 0.000000 0.000000 0.000000 0.000000 0.000000 0.000000 3088.789296 62501.735233 36881.662784 0.000000 48759.000059 11915.859294 0.000000 0.000000 0.000000 0.000000 0.000000 0.000000 0.000000 0.000000 0.000000 0.000000 0.000000 0.000000 0.000000 0.000000 0.000000 0.000000 0.000000 0.000000 0.000000 0.000000 0.000000 0.000000 0.000000 0.000000 0.000000 0.000000 0.000000 0.000000 0.000000 0.000000 0.000000 0.000000 0.000000 0.000000 0.000000 0.000000 0.000000 0.000000 0.000000 0.000000 0.000000 0.000000 0.000000 0.000000 0.000000 0.000000 0.000000 0.000000 0.000000 0.000000 0.000000 9709.065308 0.000000 0.000000 0.000000 102147.774277 0.000000 0.000000 0.000000 0.000000 74307.903316 0.000000 0.000000 31248.992563 0.000000 0.000000 34324.419001 7369.541797 31996.215394 34846.707795 28734.845994 0.000000 0.000000 0.000000 0.000000 39779.280500 0.000000 0.000000 0.000000 0.000000 0.000000 0.000000 0.000000 32954.738573 0.000000 0.000000 37957.554819 0.000000 50156.497030 25024.363569 0.000000 0.000000 0.000000 0.000000 0.000000 0.000000 3753.552706 26111.853677 0.000000 96314.398920 39179.273768 0.000000 0.000000 9589.052539 0.000000 13400.415857 0.000000 0.000000 65892.440799 0.000000 0.000000 29343.395964 348.443162 0.000000 0.000000 0.000000 0.000000 0.000000 61701.466147 9994.404490 13812.582963 0.000000 0.000000 0.000000 0.000000 0.000000 0.000000 1799.221850 126007.637009 0.000000 713.157041 0.000000 16423.846672 61947.116863 0.000000 0.000000 81074.648005 0.000000 0.000000 0.000000 0.000000 0.000000 12283.107549 68427.370230 0.000000 0.000000 0.000000 0.000000 23280.448915 0.000000 0.000000 0.000000 22244.127734 91199.120305 41671.557978 0.000000 160003.813919 0.000000 3519.646555 0.000000 37689.303533 0.000000 15168.131789 0.000000 0.000000 0.000000 0.000000 53876.753942 0.000000 0.000000 0.000000 0.000000 0.000000 0.000000 0.000000 52153.571316 0.000000 0.000000 63156.029018 41205.661834 23524.067617 0.000000 29928.671773 0.000000 0.000000 0.000000 0.000000 0.000000 5802.691803 1304.537012 0.000000 0.000000 51429.624271 0.000000 37647.845124 0.000000 0.000000 50476.602635 0.000000 14764.343121 0.000000 462789.116584 0.000000 145862.544141 106803.231175 0.000000 28218.188836 0.000000 84613.570195 0.000000 0.000000 0.000000 0.000000 0.000000 0.000000 0.000000 0.000000 0.000000 43932.308757 0.000000 0.000000 0.000000 15304.489429 0.000000 11063.376637 4137.856613 0.000000 78259.221819 0.000000 0.000000 0.000000 0.000000 0.000000 0.000000 0.000000 0.000000 0.000000 0.000000 0.000000 61282.371172 0.000000 201128.859606 0.000000 0.000000 0.000000 0.000000 0.000000 0.000000 76809.777818 0.000000 9661.457097 136974.415291 0.000000 176723.297151 10695.773753 7375.779541 0.000000 0.000000 100405.820442 0.000000 0.000000 0.000000 224765.684436 103711.097200 0.000000 0.000000 0.000000 0.000000 0.000000 179685.318342 0.000000 0.000000 0.000000 120661.971266 208096.412420 0.000000 0.000000 0.000000 0.000000 0.000000 13261.648805 0.000000 175235.544994 0.000000 135872.368319 65639.496701 0.000000 0.000000 0.000000 0.000000 125427.775858 47924.526287 0.000000 0.000000 0.000000 0.000000 0.000000 0.000000 0.000000 0.000000 223394.041649 21914.643365 0.000000 374025.576527 20529.237961 0.000000 0.000000 0.000000 36551.246084 9640.029132 169586.535453 0.000000 0.000000 0.000000 67802.214665 22797.868794 0.000000 26104.243259 0.000000 2789.133406 0.000000 0.000000 0.000000 0.000000 0.000000 0.000000 43100.943533 84841.071370 83838.892867 249859.366565 68133.038829 0.000000 0.000000 224842.128339 0.000000 163953.745002 70093.925277 89189.991521 0.000000 0.000000 0.000000 13299.135560 17704.949546 0.000000 1468.521151 0.000000 0.000000 11795.641343 0.000000 149093.098697 33964.500490 49806.302423 0.000000 57162.360928 0.000000 0.000000 94308.757084 0.000000 0.000000 0.000000 0.000000 0.000000 0.000000 0.000000 2734.562848 0.000000 0.000000 0.000000 0.000000 0.000000 0.000000 0.000000 49549.398733 109066.703493 210881.668914 50534.693164 110051.501107 0.000000 0.000000 0.000000 0.000000 0.000000 9044.331480 0.000000 189199.342981 0.000000 0.000000 0.000000 184908.671838 0.000000 261939.171614 0.000000 0.000000 184117.497660 24925.729572 0.000000 0.000000 127079.889957 0.000000 0.000000 0.000000 0.000000 0.000000 689591.316236 10331.167789 601307.369162 0.000000 0.000000 20142.420038 0.000000 0.000000 0.000000 0.000000 0.000000 0.000000 0.000000 0.000000 0.000000 27795.783403 127768.289482 0.000000 356364.669419 0.000000 0.000000 0.000000 191212.889373 0.000000 0.000000 0.000000 0.000000 0.000000 0.000000 34577.895189 58183.441467 0.000000 0.000000 239997.855268 250272.886490 0.000000 0.000000 0.000000 0.000000 114132.585181 0.000000 0.000000 101317.951364 251268.446442 0.000000 0.000000 0.000000 0.000000 0.000000 0.000000 0.000000 0.000000 57803.216464 0.000000 145354.580738 0.000000 0.000000 0.000000 0.000000 0.000000 0.000000 8654.149142 35721.558177 30392.226342 78078.808920 0.000000 0.000000 117153.924152 0.000000 3477.116926 0.000000 0.000000 0.000000 0.000000 0.000000 0.000000 211235.622839 0.000000 49036.543756 0.000000 0.000000 0.000000 44052.187728 85321.040137 0.000000 12273.597810 34849.213083 0.000000 113577.270250 0.000000 102826.002109 17648.913027 0.000000 0.000000 223256.582984 40737.212786 131536.265666 0.000000 0.000000 125428.152193 0.000000 0.000000 0.000000 0.000000 0.000000 0.000000 0.000000 0.000000 0.000000 0.000000 0.000000 2884.912247 19220.648129 0.000000 303590.317039 0.000000 66500.214312 0.000000 32011.727472 198537.504028 53278.796248 0.000000 0.000000 0.000000 0.000000 0.000000 0.000000 0.000000 0.000000 82261.112777 0.000000 0.000000 0.000000 0.000000 96335.907081 10542.645740 177087.463397 18783.833449 12583.773977 151269.161680 0.000000 0.000000 269351.570047 73002.464681 17086.459990 0.000000 0.000000 70617.129551 0.000000 0.000000 0.000000 0.000000 0.000000 0.000000 0.000000 0.000000 0.000000 74615.262126 657374.942085 224101.022143 0.000000 0.000000 88066.837818 0.000000 0.000000 0.000000 623598.438065 0.000000 11282.475228 0.000000 0.000000 0.000000 437890.424688 108040.712090 0.000000 108035.403180 0.000000 73195.762559 90267.214911 98187.341668 197486.106834 0.000000 427874.276127 0.000000 306700.536702 0.000000 212864.161523 42644.104805 0.000000 0.000000 0.000000 0.000000 17944.859173 82870.722608 0.000000 0.000000 0.000000 0.000000 0.000000 0.000000 0.000000 0.000000 0.000000 0.000000 0.000000 0.000000 0.000000 0.000000 209580.279057 26305.111932 8090.295755 0.000000 0.000000 0.000000 84116.609901 0.000000 0.000000 0.000000 0.000000 11232.897953 0.000000 0.000000 111803.726318 0.000000 0.000000 0.000000 0.000000 160854.702299 0.000000 0.000000 9668.913116 0.000000 116997.965490 0.000000 23135.011041 149686.195163 0.000000 139764.220541 0.000000 0.000000 0.000000 0.000000 0.000000 0.000000 0.000000 15109.073598 6871.362775 73755.576673 88162.618022 138793.391545 0.000000 192098.513762 17560.580386 49173.133857 0.000000 0.000000 0.000000 0.000000 0.000000 175510.405595 0.000000 0.000000 0.000000 0.000000 0.000000 60018.893461 14384.203131 0.000000 359815.033888 65569.183394 23241.209230 0.000000 0.000000 0.000000 0.000000 339171.097282 0.000000 0.000000 0.000000 46850.838318 0.000000 0.000000 136384.741296 35401.325725 0.000000 0.000000 0.000000 0.000000 0.000000 0.000000 0.000000 40286.006728 119453.587956 94293.881861 0.000000 5873.527259 99739.264165 0.000000 0.000000 128547.517051 0.000000 14046.399602 0.000000 102459.115929 0.000000 0.000000 11649.757054 0.000000 29143.910297 0.000000 86586.888931 0.000000 6171.313404 4024.220923 0.000000 23977.673804 61183.499173 0.000000 0.000000 19482.048991 44924.839046 92959.177799 653144.099263 0.000000 0.000000 0.000000 37179.203444 0.000000 0.000000 15716.013975 0.000000 0.000000 0.000000 0.000000 0.000000 0.000000 0.000000 13689.073351 37839.356588 0.000000 0.000000 0.000000 0.000000 0.000000 196704.917860 0.000000 0.000000 0.000000 0.000000 0.000000 0.000000 0.000000 0.000000 0.000000 0.000000 0.000000 0.000000 0.000000 0.000000 0.000000 0.000000 102851.346845 0.000000 94211.696883 25094.472216 0.000000 0.000000 0.000000 0.000000 0.000000 0.000000 0.000000 252029.969024 0.000000 0.000000 82788.374662 0.000000 0.000000 0.000000 0.000000 0.000000 0.000000 0.000000 0.000000 287.284800 0.000000 0.000000 0.000000 0.000000 0.000000 0.000000 0.000000 0.000000 0.000000 0.000000 0.000000 0.000000 0.000000 0.000000 0.000000 0.000000 17862.590510 120152.209256 0.000000 0.000000 15057.965905 0.000000 0.000000 0.000000 0.000000 99636.287798 71104.592568 0.000000 108406.629370 83482.271660 0.000000 95977.163389 0.000000 0.000000 15241.217562 0.000000 0.000000 0.000000 0.000000 0.000000 0.000000 0.000000 0.000000 0.000000 706.024483 10470.818121 75257.270699 0.000000 0.000000 68289.092041 0.000000 0.000000 0.000000 368651.802357 0.000000 168119.082014 0.000000 0.000000 0.000000 82970.193177 306482.038851 39641.355841 48520.507822 115154.154404 99609.369936 0.000000 0.000000 0.000000 0.000000 55915.374227 0.000000 0.000000 125347.513754 0.000000 0.000000 179203.403674 133348.103500 0.000000 41394.929911 0.000000 78701.738684 104287.363350 267219.461740 0.000000 0.000000 0.000000 0.000000 0.000000 0.000000 0.000000 21.047528 0.000000 0.000000 232705.902103 0.000000 146426.583414 0.000000 0.000000 0.000000 0.000000 0.000000 170619.208919 0.000000 0.000000 0.000000 0.000000 0.000000 41926.246490 0.000000 51833.214408 0.000000 1273.930393 0.000000 222211.813795 0.000000 151271.818547 0.000000 0.000000 0.000000 31301.944337 0.000000 0.000000 0.000000 0.000000 0.000000 0.000000 0.000000 19239.140307 0.000000 10450.878746 0.000000 0.000000 0.000000 0.000000 0.000000 0.000000 9341.202650 32659.197050 0.000000 0.000000 0.000000 0.000000 0.000000 27605.195833 68097.840149 0.000000 0.000000 0.000000 0.000000 0.000000 65477.280537 126908.065048 0.000000 0.000000 0.000000 0.000000 0.000000 26535.985511 30148.778182 0.000000 0.000000 0.000000 0.000000 0.000000 5271.795501 23582.756830 0.000000 0.000000 0.000000 0.000000 0.000000 0.000000 17534.040066 0.000000 0.000000 0.000000 0.000000 0.000000 16822.998825 20247.415187 0.000000 0.000000 0.000000 0.000000 0.000000 51428.279197 76274.257822 0.000000 0.000000 0.000000 0.000000 0.000000 21410.084995 14289.173820 0.000000 0.000000 0.000000 0.000000 0.000000 29261.875904 102298.182351 0.000000 0.000000 0.000000 0.000000 0.000000 25926.544398 122914.139001 0.000000 0.000000 0.000000 0.000000 0.000000 1290.051190 0.000000 0.000000 0.000000 0.000000 0.000000 0.000000 1935.909170 10797.892948 0.000000 0.000000 0.000000 0.000000 0.000000 1568.306859 8734.484047 0.000000 0.000000 0.000000 0.000000 0.000000 73.788179 0.000000 0.000000 0.000000 0.000000 0.000000 0.000000 26466.752949 2087.824334 0.000000 0.000000 0.000000 0.000000 0.000000 26238.486296 37713.169935 0.000000 0.000000 0.000000 0.000000 0.000000 4407.376412 33165.581806 0.000000 0.000000 0.000000 0.000000 0.000000 4264.573222 7559.857239 0.000000 0.000000 0.000000 0.000000 0.000000 18165.724902 49368.989433 0.000000 0.000000 0.000000 0.000000 0.000000 21558.574461 125935.230292 0.000000 0.000000 0.000000 0.000000 0.000000 1780.824012 18854.002051 0.000000 0.000000 0.000000 0.000000 0.000000 0.000000 0.000000 0.000000 0.000000 0.000000 0.000000 0.000000 0.000000 0.000000 0.000000 0.000000 0.000000 0.000000 0.000000 12194.514217 0.000000 0.000000 0.000000 0.000000 0.000000 0.000000 29656.112901 148879.413864 0.000000 0.000000 0.000000 0.000000 0.000000 8271.145855 45154.174158 0.000000 0.000000 0.000000 0.000000 0.000000 5763.545338 42266.053232 0.000000 0.000000 0.000000 0.000000 0.000000 3345.578753 25829.603835 0.000000 0.000000 0.000000 0.000000 0.000000 0.000000 0.000000 0.000000 0.000000 0.000000 0.000000 0.000000 3058.457219 0.000000 0.000000 0.000000 0.000000 0.000000 0.000000 9161.760084 30284.235805 0.000000 0.000000 0.000000 0.000000 0.000000 4763.786285 0.000000 0.000000 0.000000 0.000000 0.000000 0.000000 1278.283485 0.000000 0.000000 0.000000 0.000000 0.000000 0.000000 32969.507154 76713.851454 0.000000 0.000000 0.000000 0.000000 0.000000 35409.855096 145704.897132 0.000000 0.000000 0.000000 0.000000 0.000000 10613.512305 65509.664569 0.000000 0.000000 0.000000 0.000000 0.000000 21976.023505 79826.529154 0.000000 0.000000 0.000000 0.000000 0.000000 24927.669584 77727.728242 0.000000 0.000000 0.000000 0.000000 0.000000 9655.744210 64538.808852 0.000000 0.000000 0.000000 0.000000 0.000000 8838.327709 63943.298575 0.000000 0.000000 0.000000 0.000000 0.000000 9323.053592 17521.889798 0.000000 0.000000 0.000000 0.000000 0.000000 49152.559471 89426.497424 0.000000 0.000000 0.000000 0.000000 0.000000 48434.111637 178167.666560 0.000000 0.000000 0.000000 0.000000 0.000000 49368.063547 479479.526879 0.000000 0.000000 0.000000 0.000000 0.000000 20718.223193 189061.144986 0.000000 0.000000 0.000000 0.000000 0.000000 1684.777965 17139.199145 0.000000 0.000000 0.000000 0.000000 0.000000 4718.043434 19110.283010 0.000000 0.000000 0.000000 0.000000 0.000000 14513.335316 42423.701664 0.000000 0.000000 0.000000 0.000000 0.000000 85640.019664 500319.745097 0.000000 0.000000 0.000000 0.000000 0.000000 74246.035472 367075.831729 0.000000 0.000000 0.000000 0.000000 0.000000 25987.649616 60722.071870 0.000000 0.000000 0.000000 0.000000 0.000000 37527.969354 106325.818215 0.000000 0.000000 0.000000 0.000000 0.000000 18842.662339 26891.169362 0.000000 0.000000 0.000000 0.000000 0.000000 24225.772797 103966.930616 0.000000 0.000000 0.000000 0.000000 0.000000 56536.490466 268635.430685 0.000000 0.000000 0.000000 0.000000 0.000000 82640.952381 311192.244081 0.000000 0.000000 0.000000 0.000000 0.000000 71557.435952 495060.470884 0.000000 0.000000 0.000000 0.000000 0.000000 19546.915995 260532.422878 0.000000 0.000000 0.000000 0.000000 0.000000 0.000000 21177.953375 0.000000 0.000000 0.000000 0.000000 0.000000 0.000000 0.000000 0.000000 0.000000 0.000000 0.000000 0.000000 1506.757032 0.000000 0.000000 0.000000 0.000000 0.000000 0.000000 25366.229832 78379.597340 0.000000 0.000000 0.000000 0.000000 0.000000 26153.268306 132740.952942 0.000000 0.000000 0.000000 0.000000 0.000000 3710.650673 32147.565929 0.000000 0.000000 0.000000 0.000000 0.000000 14565.803532 51913.677609 0.000000 0.000000 0.000000 0.000000 0.000000 42781.296834 185829.642673 0.000000 0.000000 0.000000 0.000000 0.000000 11826.030539 24036.807237 0.000000 0.000000 0.000000 0.000000 0.000000 26007.892510 65811.360187 0.000000 0.000000 0.000000 0.000000 0.000000 62484.042643 135945.917511 0.000000 0.000000 0.000000 0.000000 0.000000 16286.924293 2424.397928 0.000000 0.000000 0.000000 0.000000 0.000000 33754.764844 175984.160152 0.000000 0.000000 0.000000 0.000000 0.000000 55667.146073 197783.415870 0.000000 0.000000 0.000000 0.000000 0.000000 16552.746631 3556.104104 0.000000 0.000000 0.000000 0.000000 0.000000 43083.615154 63108.292093 0.000000 0.000000 0.000000 0.000000 0.000000 35624.359471 136871.922242 0.000000 0.000000 0.000000 0.000000 0.000000 3899.538955 21961.901941 0.000000 0.000000 0.000000 0.000000 0.000000 8813.345634 0.000000 0.000000 0.000000 0.000000 0.000000 0.000000 41753.781710 67738.738316 0.000000 0.000000 0.000000 0.000000 0.000000 65914.545850 161024.690909 0.000000 0.000000 0.000000 0.000000 0.000000 64587.217931 255509.797357 0.000000 0.000000 0.000000 0.000000 0.000000 11283.079294 46621.919595 11046.890818 0.000000 38625.772826 18300.325597 0.000000 14080.582930 40287.076918 15255.214784 0.000000 0.000000 0.000000 0.000000 0.000000 0.000000 0.000000 0.000000 0.000000 0.000000 0.000000 37258.847490 87991.599481 0.000000 0.000000 0.000000 0.000000 0.000000 0.000000 0.000000 0.000000 0.000000 0.000000 0.000000 0.000000 0.000000 0.000000 0.000000 0.000000 0.000000 0.000000 0.000000 0.000000 0.000000 0.000000 0.000000 0.000000 0.000000 0.000000 0.000000 0.000000 0.000000 0.000000 0.000000 0.000000 0.000000 0.000000 0.000000 0.000000 0.000000 0.000000 0.000000 0.000000 0.000000 0.000000 0.000000 0.000000 0.000000 0.000000 0.000000 0.000000 0.000000 0.000000 0.000000 0.000000 0.000000 0.000000 0.000000 0.000000 0.000000 0.000000 0.000000 0.000000 0.000000 0.000000 0.000000 0.000000 0.000000 0.000000 0.000000 0.000000 0.000000 0.000000 0.000000 0.000000 0.000000 0.000000 0.000000 0.000000 0.000000 0.000000 0.000000 0.000000 0.000000 0.000000 0.000000 0.000000 0.000000 0.000000 0.000000 0.000000 0.000000 0.000000 0.000000 0.000000 0.000000 0.000000 0.000000 0.000000 0.000000 0.000000 0.000000 0.000000 0.000000 0.000000 0.000000 0.000000 0.000000 0.000000 0.000000 0.000000 0.000000 0.000000 0.000000 0.000000 0.000000 0.000000 0.000000 0.000000 0.000000 0.000000 0.000000 0.000000 0.000000 0.000000 0.000000 0.000000 0.000000 0.000000 0.000000 0.000000 0.000000 0.000000 0.000000 0.000000 0.000000 0.000000 0.000000 0.000000 0.000000 0.000000 0.000000 0.000000 0.000000 0.000000 0.000000 0.000000 0.000000 0.000000
</DataArray>
<DataArray type="Float64" Name="Velocity" NumberOfComponents="3" format="ascii">