<VTKFile type="PolyData">
<PolyData>
<Piece NumberOfPoints="1840" NumberOfVerts="1840" NumberOfLines="0" NumberOfStrips="0" NumberOfPolys="0">
<PointData>
<DataArray type="Float64" Name="Pressure" format="ascii">
 0.000000 0.000000 0.000000 0.000000 0.000000 0.000000 0.000000 0.000000 0.000000 0.000000 0.000000 0.000000 0.000000 0.000000 0.000000 0.000000 0.000000 0.000000 0.000000 0.000000 0.000000 0.000000 0.000000 0.000000 0.000000 0.000000 0.000000 0.000000 0.000000 0.000000 0.000000 0.000000 0.000000 0.000000 0.000000 0.000000 0.000000 0.000000 0.000000 0.000000 0.000000 0.000000 0.000000 0.000000 0.000000 0.000000 0.000000 0.000000 0.000000 0.000000 0.000000 0.000000 0.000000 0.000000 0.000000 0.000000 0.000000 0.000000 0.000000 0.000000 0.000000 0.000000 0.000000 0.000000 0.000000 0.000000 0.000000 0.000000 0.000000 0.000000 0.000000 0.000000 0.000000 0.000000 0.000000 0.000000 0.000000 0.000000 0.000000 0.000000 0.000000 0.000000 0.000000 0.000000 0.000000 0.000000 0.000000 0.000000 0.000000 0.000000 0.000000 0.000000 0.000000 0.000000 0.000000 0.000000 0.000000 0.000000 0.000000 0.000000 0.000000 0.000000 0.000000 0.000000 0.000000 0.000000 0.000000 0.000000 0.000000 0.000000 0.000000 0.000000 0.000000 0.000000 0.000000 0.000000 23802.940419 84498.801890 91148.901331 82953.678617 76456.174078 41362.190009 25437.234631 21287.702772 15502.234375 11911.287866 13480.708359 16874.912210 20798.852391 22937.911150 16470.359049 7454.944839 2556.384841 806.269736 246.642313 42.259482 0.000000 0.000000 0.000000 0.000000 0.000000 0.000000 0.000000 0.000000 0.000000 0.000000 0.000000 0.000000 0.000000 0.000000 0.000000 0.000000 0.000000 0.000000 0.000000 0.000000 0.000000 0.000000 0.000000 0.000000 0.000000 0.000000 0.000000 0.000000 0.000000 0.000000 0.000000 0.000000 0.000000 0.000000 0.000000 0.000000 0.000000 90935.695132 374749.527690 309268.055599 304252.802988 337921.521212 275242.764005 257048.282828 235340.010594 191126.623528 171945.418027 177713.257326 190662.379034 227905.824888 286995.504544 232188.829866 107076.873218 37534.491956 12771.672935 4495.240065 1486.752439 344.359999 0.000000 0.000000 0.000000 0.000000 0.000000 0.000000 0.000000 0.000000 0.000000 0.000000 0.000000 0.000000 0.000000 0.000000 0.000000 0.000000 0.000000 0.000000 0.000000 0.000000 0.000000 0.000000 0.000000 0.000000 0.000000 0.000000 0.000000 0.000000 0.000000 0.000000 0.000000 0.000000 0.000000 0.000000 0.000000 0.000000 110485.632354 393991.972755 374749.527690 318469.015967 288286.977770 300512.972090 342355.374236 300558.932133 328509.999883 313913.560036 302905.797819 299730.514765 322208.638874 320014.914164 274964.813910 222209.123065 227988.237908 310030.917216 378504.063217 364183.845049 270816.366595 145574.339741 59636.667605 22174.085445 8163.553766 2964.041385 963.717044 186.565863 0.000000 0.000000 0.000000 0.000000 0.000000 0.000000 0.000000 0.000000 0.000000 0.000000 0.000000 0.000000 0.000000 0.000000 0.000000 0.000000 0.000000 0.000000 113472.847199 409217.841232 391431.396105 341864.874259 353737.198980 307364.690996 298846.162137 283946.255393 259968.928022 227994.714691 212738.844277 183579.038606 194393.100659 228998.003549 236431.351983 203631.977813 158705.982326 127812.737217 148704.352560 200093.217500 202647.301275 137107.390753 66152.840008 26781.003761 10359.324414 4000.156095 1478.344853 425.319392 0.000000 0.000000 0.000000 0.000000 0.000000 0.000000 0.000000 0.000000 0.000000 0.000000 0.000000 0.000000 0.000000 0.000000 0.000000 0.000000 0.000000 0.000000 96847.572124 380619.288324 392010.753471 276204.922599 289707.044499 280510.202934 237915.915347 235102.554753 268788.945685 303693.053834 304691.463732 254292.756038 203409.551731 212446.775446 241577.086221 257354.432263 240789.762601 201332.545609 199060.894299 223556.213889 212572.456911 148189.963016 75849.311895 31963.421724 12579.227793 4872.807644 1817.952988 558.329924 19.051546 0.000000 0.000000 0.000000 0.000000 0.000000 0.000000 0.000000 0.000000 0.000000 0.000000 0.000000 0.000000 0.000000 0.000000 0.000000 0.000000 0.000000 89732.281767 368094.365281 334570.797016 266381.253148 289113.207142 343005.809488 316360.415302 272195.581609 241206.292266 230762.503922 258182.215133 248900.623368 225442.746439 219481.997644 208018.862544 201150.002116 182051.670178 149199.594080 153358.220588 185271.812977 191990.394224 146287.579296 80557.164659 35488.642601 14289.574115 5650.493557 2239.684688 868.952886 292.878042 45.664327 0.000000 0.000000 0.000000 0.000000 0.000000 0.000000 0.000000 0.000000 0.000000 0.000000 0.000000 0.000000 0.000000 0.000000 0.000000 0.000000 108741.699204 383058.288347 380483.014277 264247.442256 277433.557274 276022.227342 272444.422224 253037.475694 250182.629141 259960.132923 246891.346756 220477.429495 211117.001866 211080.888216 219697.806760 235970.037092 211910.243146 162138.007001 152973.168047 175588.169430 183013.891898 144810.748707 83301.339900 37892.057333 15503.899510 6138.561319 2387.082715 866.546748 218.388796 0.000000 0.000000 0.000000 0.000000 0.000000 0.000000 0.000000 0.000000 0.000000 0.000000 0.000000 0.000000 0.000000 0.000000 0.000000 0.000000 0.000000 113624.131401 376297.650610 376578.206910 281486.521021 286616.332819 284799.250645 264915.984595 239942.239641 245397.823713 252071.360390 245888.380837 238000.466941 210933.899699 190096.646482 199777.275311 214500.786677 190258.216292 145857.810273 137886.056105 159505.980831 170690.980992 140190.128297 83815.163404 39353.576091 16475.883957 6660.839036 2680.925901 1080.884797 422.664169 132.001196 0.000000 0.000000 0.000000 0.000000 0.000000 0.000000 0.000000 0.000000 0.000000 0.000000 0.000000 0.000000 0.000000 0.000000 0.000000 0.000000 117390.707981 376931.169725 374421.900671 254292.644324 263169.412722 283597.198519 277480.261160 249084.716668 226992.506763 227509.957019 239111.053617 227955.771232 196163.737401 191829.850738 208823.781789 216800.358512 187586.454900 141325.120906 129862.696517 148335.962023 160246.678588 134353.208845 82325.632569 39536.882530 16798.618375 6822.576959 2729.449354 1081.239059 401.436383 91.901214 0.000000 0.000000 0.000000 0.000000 0.000000 0.000000 0.000000 0.000000 0.000000 0.000000 0.000000 0.000000 0.000000 0.000000 0.000000 0.000000 111167.823660 377776.081761 397495.254061 286505.519495 291445.509869 267204.661138 243097.713837 229403.000479 235006.675123 250780.729013 243361.522686 207765.211586 181568.263029 185555.229796 197920.382191 200865.373785 173599.048238 130196.490213 119317.447689 137205.462708 149753.958425 127354.230723 79489.738362 38934.826579 16848.958714 6955.102683 2829.412930 1139.154256 423.339173 91.652256 0.000000 0.000000 0.000000 0.000000 0.000000 0.000000 0.000000 0.000000 0.000000 0.000000 0.000000 0.000000 0.000000 0.000000 0.000000 0.000000 115664.498635 411121.434311 403755.888529 284784.863331 287673.420218 278647.182945 243614.147685 223541.799992 224887.999325 229755.965565 217875.666117 193571.592248 178566.559890 184567.575640 193392.830973 191613.869861 162315.234310 119717.378693 109892.238926 127538.647082 139499.703952 118957.754574 74918.610058 37191.975206 16300.185806 6799.225182 2784.499226 1126.208589 440.468292 151.533405 29.309376 0.000000 0.000000 0.000000 0.000000 0.000000 2.852678 0.000000 0.000000 0.000000 0.000000 0.000000 0.000000 0.000000 0.000000 0.000000 111724.844885 398970.106210 388701.240082 265296.602940 265106.507241 267863.898541 227641.288529 209566.811756 214650.527517 221388.908561 210895.717179 186173.758906 169205.921913 175527.362689 183054.836054 176300.240434 146270.242461 108150.287704 101661.152341 119689.815195 130392.853938 110261.693126 69375.101089 34708.398299 15361.521717 6451.637022 2633.991232 1035.043637 373.297152 101.273934 0.000000 0.000000 0.000000 0.000000 0.000000 0.000000 0.000000 0.000000 0.000000 0.000000 0.000000 0.000000 0.000000 0.000000 0.000000 0.000000 111815.911024 390848.714622 363866.506355 249429.959019 245825.887977 248417.363342 206207.311061 194857.886300 212024.083427 218370.929502 195653.995202 165877.357408 156773.080448 170790.720825 175101.423759 159204.730546 128346.399554 96346.111399 94043.010485 112378.724618 121110.303019 100818.530900 63070.434275 31801.931500 14329.296153 6194.189533 2662.112059 1161.234031 526.226622 256.183635 137.860440 83.292078 58.060898 45.425122 41.888735 25.085201 47.878662 0.000000 26.048080 0.000000 0.000000 0.000000 0.000000 0.000000 0.000000 0.000000 109696.183037 376109.238963 333419.821374 234324.532530 228563.127713 239996.940659 197100.836269 179902.443660 196906.465581 205518.642237 183429.678683 153127.372818 146618.303325 163588.745952 163627.549776 139644.207451 110202.232666 85819.359205 87991.157728 106004.712164 111595.205116 90337.660014 55650.819186 28068.125883 12758.676991 5572.090806 2413.318074 1054.842395 472.966665 222.703195 113.805984 64.669483 39.713657 23.617883 14.112431 1.602909 16.147734 0.000000 33.203896 0.000000 0.000000 0.000000 0.000000 0.000000 0.000000 0.000000 98017.627031 342110.446555 309055.654248 196957.343546 189079.224081 218066.733963 189665.848480 176870.373451 183130.251554 175292.453361 155834.081518 137400.474405 133613.132928 147406.298335 144646.052209 118173.814689 92933.141268 76849.295980 83312.539079 100136.514606 101715.098938 79323.833145 47902.230115 24177.677973 11157.757671 5006.639543 2270.227145 1078.596061 561.994861 335.919955 234.010197 184.257333 155.569390 134.517545 116.231076 94.577784 83.105257 38.223458 72.993934 0.000000 0.000000 0.000000 0.000000 0.000000 0.000000 0.000000 97543.238392 334546.055393 273377.848555 178330.120096 174840.998977 186647.722676 161356.245505 158192.182004 174054.634968 164696.196400 139343.455836 127646.083302 132394.586579 140573.364108 128617.922286 98508.238702 77761.875033 68864.554903 78283.096333 92638.730498 89844.382143 67030.329458 39536.271071 19917.108662 9295.150011 4250.973962 1981.829854 982.054189 543.849822 350.069219 261.187190 215.846284 187.876375 166.403004 147.206910 126.916489 109.627680 76.256927 87.025760 0.000000 0.000000 0.000000 0.000000 0.000000 0.000000 0.000000 94628.281488 305479.144873 216070.172409 144109.872396 135040.511834 177059.737209 166836.910036 149685.215923 144002.966668 132323.286599 114388.820923 99409.121981 102883.641049 110852.594840 98369.666551 72114.143068 61076.914930 61639.040937 73732.954276 84484.709734 77186.888387 54634.404314 31318.316823 15682.908554 7370.335125 3420.194419 1631.697084 837.617973 486.937382 331.014482 259.007281 221.866378 198.093985 178.521481 159.726828 139.845347 119.925748 92.510848 80.947589 0.000000 0.000000 0.000000 0.000000 0.000000 0.000000 0.000000 85178.272829 290323.748405 179393.986592 124656.503480 124605.616536 143154.949577 137400.776957 128498.613235 124472.769476 111311.221318 115417.068573 116724.644240 108962.594959 107389.050236 92275.604866 65095.779545 56576.407496 59527.743006 68157.346876 71912.945855 60724.417825 40549.241188 22536.311939 11159.608228 5238.452183 2450.103477 1192.241275 631.546567 382.011009 270.306098 218.396345 191.335557 173.481915 158.077960 142.295469 124.622896 104.872811 80.187211 56.627451 0.000000 0.000000 0.000000 0.000000 0.000000 0.000000 0.000000 74101.024651 247638.510323 147030.242905 81561.910559 75992.220780 95999.800648 101871.866188 96517.025559 95748.458551 80677.667890 61686.368053 63789.260039 58880.885636 49124.593684 43825.275411 31436.480724 31165.334893 39853.446163 49545.566490 52468.990483 43661.137962 29045.907836 16303.306054 8117.091410 3760.479652 1722.239570 830.376997 440.671974 268.533808 191.801758 156.029525 136.759788 123.141192 110.525457 96.899221 81.407075 63.908763 43.797033 22.562674 0.000000 0.000000 0.000000 0.000000 0.000000 0.000000 0.000000 71443.981555 212844.244048 90133.007099 39225.833155 55041.110823 65093.432123 66858.189136 51609.716793 61334.936807 77590.390425 88541.889653 93189.585896 90323.113725 72797.056245 60990.949012 51417.003187 48917.296460 50862.556117 50491.957256 44556.034091 32643.296520 19435.970639 9073.302555 2533.254175 0.000000 0.000000 0.000000 0.000000 0.000000 0.000000 0.000000 0.000000 0.000000 0.000000 0.000000 0.000000 0.000000 0.000000 0.000000 0.000000 0.000000 0.000000 0.000000 0.000000 0.000000 0.000000 62816.029100 201677.779993 0.000000 0.000000 0.000000 39079.113664 13592.077678 0.000000 0.000000 0.000000 0.000000 0.000000 0.000000 0.000000 0.000000 0.000000 0.000000 0.000000 0.000000 0.000000 0.000000 0.000000 0.000000 0.000000 0.000000 0.000000 0.000000 0.000000 0.000000 0.000000 0.000000 0.000000 0.000000 0.000000 0.000000 0.000000 0.000000 0.000000 0.000000 0.000000 0.000000 0.000000 0.000000 0.000000 0.000000 0.000000 61974.681644 151031.226226 0.000000 0.000000 0.000000 0.000000 0.000000 35974.654074 97090.528331 0.000000 0.000000 0.000000 0.000000 0.000000 56791.345214 150878.553957 0.000000 0.000000 0.000000 0.000000 0.000000 35174.419487 80878.735031 0.000000 0.000000 0.000000 0.000000 0.000000 45756.243386 97062.598723 0.000000 0.000000 0.000000 0.000000 0.000000 20075.354303 59595.358371 0.000000 0.000000 0.000000 0.000000 0.000000 5887.417457 14348.345405 0.000000 0.000000 0.000000 0.000000 0.000000 24552.070264 19008.575089 0.000000 0.000000 0.000000 0.000000 0.000000 13410.782544 0.000000 0.000000 0.000000 0.000000 0.000000 0.000000 0.000000 0.000000 0.000000 0.000000 0.000000 0.000000 0.000000 0.000000 0.000000 0.000000 0.000000 0.000000 0.000000 0.000000 0.000000 0.000000 0.000000 0.000000 0.000000 0.000000 0.000000 0.000000 0.000000 0.000000 0.000000 0.000000 0.000000 0.000000 0.000000 0.000000 0.000000 0.000000 0.000000 0.000000 0.000000 0.000000 0.000000 0.000000 0.000000 0.000000 0.000000 0.000000 0.000000 0.000000 0.000000 0.000000 0.000000 0.000000 0.000000 0.000000 0.000000 0.000000 0.000000 0.000000 0.000000 0.000000 0.000000 0.000000 0.000000 0.000000 0.000000 0.000000 0.000000 0.000000 0.000000 0.000000 0.000000 0.000000 0.000000 0.000000 0.000000 0.000000 0.000000 0.000000 0.000000 0.000000 0.000000 0.000000 0.000000 0.000000 0.000000 0.000000 0.000000 0.000000 0.000000 0.000000 0.000000 0.000000 0.000000 0.000000 0.000000 0.000000 0.000000 0.000000 0.000000 0.000000 0.000000 0.000000 0.000000 0.000000 0.000000 0.000000 0.000000 0.000000 0.000000 0.000000 0.000000 0.000000 0.000000 0.000000 0.000000 0.000000 0.000000 0.000000 0.000000 0.000000 0.000000 0.000000 0.000000 0.000000 0.000000 0.000000 0.000000 0.000000 0.000000 0.000000 0.000000 0.000000 0.000000 0.000000 0.000000 0.000000 0.000000 0.000000 0.000000 0.000000 0.000000 0.000000 0.000000 0.000000 0.000000 0.000000 0.000000 0.000000 0.000000 0.000000 0.000000 0.000000 0.000000 0.000000 0.000000 0.000000 0.000000 0.000000 0.000000 0.000000 0.000000 0.000000 0.000000 0.000000 0.000000 0.000000 0.000000 0.000000 0.000000 0.000000 0.000000 0.000000 0.000000 0.000000 0.000000 0.000000 0.000000 0.000000 0.000000 0.000000 0.000000 0.000000 0.000000 0.000000 0.000000 0.000000 0.000000 0.000000 0.000000 0.000000 0.000000 0.000000 0.000000 0.000000 0.000000 0.000000 0.000000 0.000000 0.000000 0.000000 0.000000 0.000000 0.000000 0.000000 0.000000 0.000000 0.000000 0.000000 0.000000 0.000000 0.000000 0.000000 0.000000 0.000000 0.000000 0.000000 0.000000 0.000000 0.000000 0.000000 0.000000 0.000000 0.000000 0.000000 0.000000 0.000000 0.000000 0.000000 0.000000 0.000000 0.000000 0.000000 0.000000 0.000000 0.000000 0.000000 0.000000 0.000000 0.000000 0.000000 0.000000 0.000000 0.000000 0.000000 0.000000 0.000000 0.000000 0.000000 0.000000 0.000000 0.000000 0.000000 0.000000 0.000000 0.000000 0.000000 0.000000 0.000000 0.000000 0.000000 0.000000 0.000000 0.000000 0.000000 0.000000 0.000000 0.000000 0.000000 0.000000 0.000000 0.000000 0.000000 0.000000 0.000000 0.000000 0.000000 0.000000 0.000000 0.000000 0.000000 0.000000 0.000000 0.000000 0.000000 0.000000 0.000000 0.000000 0.000000 0.000000 0.000000 0.000000 0.000000 0.000000 0.000000 0.000000 0.000000 0.000000 0.000000 0.000000 0.000000 0.000000 0.000000 0.000000 0.000000 0.000000 0.000000 0.000000 0.000000 0.000000 0.000000 0.000000 0.000000 0.000000 0.000000 0.000000 0.000000 0.000000 0.000000 0.000000 0.000000 0.000000 0.000000 0.000000 0.000000 0.000000 0.000000 0.000000 0.000000 0.000000 0.000000 0.000000 0.000000 0.000000 0.000000 0.000000 0.000000 0.000000 0.000000 0.000000 0.000000 0.000000 0.000000 0.000000 0.000000 0.000000 0.000000 0.000000 0.000000 0.000000 0.000000 0.000000 0.000000 0.000000 0.000000 0.000000 0.000000 0.000000 0.000000 0.000000 0.000000 0.000000 0.000000 0.000000 0.000000 0.000000 0.000000 0.000000 0.000000 0.000000 0.000000 0.000000 0.000000 0.000000 0.000000 0.000000 0.000000 0.000000 0.000000 0.000000 0.000000 0.000000 0.000000 0.000000 0.000000 0.000000 0.000000 0.000000 0.000000 0.000000 0.000000 0.000000 0.000000 0.000000 0.000000 0.000000 0.000000 0.000000 0.000000 0.000000 0.000000 0.000000 0.000000 0.000000 0.000000 0.000000 0.000000 0.000000 0.000000 0.000000 0.000000 0.000000 0.000000 0.000000 0.000000 0.000000 0.000000 0.000000 0.000000 0.000000 0.000000 0.000000 0.000000 0.000000 0.000000 0.000000 0.000000 0.000000 0.000000 0.000000 0.000000 0.000000 0.000000 0.000000 0.000000 0.000000 0.000000 0.000000 0.000000 0.000000 0.000000 0.000000 0.000000 0.000000 0.000000 0.000000 0.000000 0.000000 0.000000 0.000000 0.000000 0.000000 0.000000 0.000000 0.000000 0.000000 0.000000 0.000000 0.000000 0.000000 0.000000 0.000000 0.000000 0.000000 0.000000 0.000000 0.000000 0.000000 0.000000 0.000000 0.000000 0.000000 0.000000 0.000000 0.000000 0.000000 0.000000 0.000000 0.000000 0.000000 0.000000 0.000000 0.000000 0.000000 0.000000 0.000000 0.000000 0.000000 0.000000 0.000000 0.000000 0.000000 0.000000 0.000000 0.000000 0.000000 0.000000 0.000000 0.000000 0.000000 0.000000 0.000000 0.000000 0.000000 0.000000 0.000000 0.000000 0.000000 0.000000 0.000000 0.000000 0.000000 0.000000 0.000000 0.000000 0.000000 0.000000 0.000000 0.000000 0.000000 0.000000 0.000000 0.000000 0.000000 0.000000 0.000000 0.000000 0.000000 0.000000 0.000000 0.000000 0.000000 0.000000 0.000000 0.000000 0.000000 0.000000 0.000000 0.000000 0.000000 0.000000 0.000000 0.000000 0.000000 0.000000 0.000000 0.000000 0.000000 0.000000 0.000000 0.000000 0.000000 0.000000 0.000000 0.000000 0.000000 0.000000 0.000000 0.000000 0.000000 0.000000 0.000000 0.000000 0.000000 0.000000 0.000000 0.000000 0.000000 0.000000 0.000000 0.000000 0.000000 0.000000 0.000000 0.000000 0.000000 0.000000 0.000000 0.000000 0.000000 0.000000 0.000000 0.000000 0.000000 0.000000 0.000000 0.000000 0.000000 0.000000 0.000000 0.000000 0.000000 0.000000 0.000000 0.000000 0.000000 0.000000 0.000000 0.000000 0.000000 0.000000 0.000000 0.000000 0.000000 0.000000 0.000000 0.000000 0.000000 0.000000 0.000000 0.000000 0.000000 0.000000 0.000000 0.000000 0.000000 0.000000 0.000000 0.000000 0.000000 0.000000 0.000000 0.000000 0.000000 0.000000 0.000000 0.000000 0.000000 0.000000 0.000000 0.000000 0.000000 0.000000 0.000000 0.000000 0.000000 0.000000 0.000000 0.000000 0.000000 0.000000 0.000000 0.000000 0.000000 0.000000 0.000000 0.000000 0.000000 0.000000 0.000000 0.000000 0.000000 0.000000 0.000000 0.000000 0.000000 0.000000 0.000000 0.000000 0.000000 0.000000 0.000000 0.000000 0.000000 0.000000 0.000000 0.000000 0.000000 0.000000 0.000000 0.000000 0.000000 0.000000 0.000000 0.000000 0.000000 0.000000 0.000000
</DataArray>
<DataArray type="Float64" Name="Velocity" NumberOfComponents="3" format="ascii">