<VTKFile type="PolyData">
<PolyData>
<Piece NumberOfPoints="1840" NumberOfVerts="1840" NumberOfLines="0" NumberOfStrips="0" NumberOfPolys="0">
<PointData>
<DataArray type="Float64" Name="Pressure" format="ascii">
 0.000000 0.000000 0.000000 0.000000 0.000000 0.000000 0.000000 0.000000 0.000000 0.000000 0.000000 0.000000 0.000000 0.000000 0.000000 0.000000 0.000000 0.000000 0.000000 0.000000 0.000000 0.000000 0.000000 0.000000 0.000000 0.000000 0.000000 0.000000 0.000000 0.000000 0.000000 0.000000 0.000000 0.000000 0.000000 0.000000 0.000000 0.000000 0.000000 0.000000 0.000000 0.000000 0.000000 0.000000 0.000000 0.000000 0.000000 0.000000 0.000000 0.000000 0.000000 0.000000 0.000000 0.000000 0.000000 0.000000 0.000000 0.000000 0.000000 0.000000 0.000000 0.000000 0.000000 0.000000 0.000000 0.000000 0.000000 0.000000 0.000000 0.000000 0.000000 0.000000 0.000000 0.000000 0.000000 0.000000 0.000000 0.000000 0.000000 0.000000 0.000000 0.000000 0.000000 0.000000 0.000000 0.000000 0.000000 0.000000 0.000000 0.000000 0.000000 0.000000 0.000000 0.000000 0.000000 0.000000 0.000000 0.000000 0.000000 0.000000 0.000000 0.000000 0.000000 0.000000 0.000000 0.000000 0.000000 0.000000 0.000000 0.000000 0.000000 0.000000 0.000000 0.000000 0.000000 0.000000 7034.485433 48158.953557 39498.018772 1029.987663 0.000000 0.000000 0.000000 2303.209412 32260.310317 35084.649840 32294.125142 11432.361357 0.000000 0.000000 0.000000 0.000000 0.000000 0.000000 0.000000 0.000000 0.000000 0.000000 0.000000 0.000000 0.000000 0.000000 0.000000 0.000000 0.000000 0.000000 0.000000 0.000000 0.000000 0.000000 0.000000 0.000000 0.000000 0.000000 0.000000 0.000000 0.000000 0.000000 0.000000 0.000000 0.000000 0.000000 0.000000 0.000000 0.000000 0.000000 0.000000 0.000000 0.000000 0.000000 0.000000 0.000000 0.000000 22765.209978 174490.741724 88159.200817 0.000000 0.000000 0.000000 0.000000 0.000000 1577.812983 24456.845494 19179.247790 0.000000 0.000000 0.000000 0.000000 0.000000 0.000000 0.000000 0.000000 0.000000 0.000000 0.000000 0.000000 0.000000 0.000000 0.000000 0.000000 0.000000 0.000000 0.000000 0.000000 0.000000 0.000000 0.000000 0.000000 0.000000 0.000000 0.000000 0.000000 0.000000 0.000000 0.000000 0.000000 0.000000 0.000000 0.000000 0.000000 0.000000 0.000000 0.000000 0.000000 0.000000 0.000000 0.000000 0.000000 0.000000 0.000000 21068.805564 99452.122803 0.000000 9246.041986 0.000000 24787.317468 0.000000 0.000000 0.000000 46300.098850 0.000000 8451.977842 18866.813742 0.000000 0.000000 0.000000 0.000000 111562.477104 0.000000 107656.277456 0.000000 0.000000 0.000000 106814.877143 0.000000 9073.613704 0.000000 0.000000 118723.935911 0.000000 0.000000 0.000000 60238.794029 0.000000 0.000000 39079.594062 0.000000 0.000000 0.000000 0.000000 0.000000 0.000000 0.000000 0.000000 0.000000 0.000000 39982.946334 134984.359514 0.000000 0.000000 0.000000 26870.568413 0.000000 0.000000 0.000000 0.000000 33916.938651 0.000000 32674.598781 75579.337698 21080.847856 0.000000 0.000000 0.000000 29449.533772 0.000000 0.000000 0.000000 0.000000 319643.526090 0.000000 0.000000 0.000000 0.000000 0.000000 0.000000 0.000000 0.000000 0.000000 0.000000 0.000000 0.000000 34515.594651 0.000000 0.000000 0.000000 33028.175719 0.000000 0.000000 0.000000 0.000000 0.000000 24539.878637 54104.843683 0.000000 0.000000 0.000000 247981.434566 0.000000 0.000000 0.000000 63122.370330 0.000000 0.000000 0.000000 0.000000 72287.694648 0.000000 50279.630654 0.000000 0.000000 151579.644317 117781.074995 326947.647413 26441.885234 0.000000 28203.535697 0.000000 0.000000 0.000000 258865.050231 199354.751111 0.000000 0.000000 0.000000 0.000000 0.000000 0.000000 224856.949400 507381.924390 22807.829917 0.000000 0.000000 0.000000 0.000000 0.000000 0.000000 0.000000 5816.967213 0.000000 0.000000 0.000000 0.000000 41497.128346 56818.916265 0.000000 0.000000 0.000000 203261.751169 33212.549437 0.000000 0.000000 0.000000 0.000000 4171.868207 16699.157373 0.000000 0.000000 142598.328487 0.000000 0.000000 0.000000 0.000000 0.000000 56101.299266 116319.575701 0.000000 0.000000 69408.070346 0.000000 14758.128601 0.000000 0.000000 0.000000 0.000000 293864.216491 0.000000 2676.659265 37578.690866 0.000000 0.000000 0.000000 0.000000 0.000000 46466.427430 343817.203081 102426.829044 0.000000 176587.438973 0.000000 46139.323699 0.000000 0.000000 0.000000 0.000000 77532.029622 0.000000 0.000000 0.000000 209894.293726 310661.827621 0.000000 233926.523606 119184.388951 28389.777553 32566.960852 0.000000 0.000000 0.000000 74100.199872 224671.945320 0.000000 0.000000 0.000000 44009.610877 0.000000 0.000000 176450.658108 0.000000 84992.664012 0.000000 0.000000 0.000000 0.000000 0.000000 0.000000 0.000000 0.000000 0.000000 0.000000 46879.293567 435622.589702 0.000000 0.000000 0.000000 2766.108601 0.000000 0.000000 0.000000 0.000000 0.000000 32290.200043 0.000000 66773.921931 0.000000 66772.522267 154781.239353 0.000000 40192.079213 0.000000 270449.603518 0.000000 0.000000 0.000000 0.000000 0.000000 121925.380471 0.000000 19639.801922 0.000000 0.000000 40806.572575 0.000000 0.000000 114122.184726 0.000000 73527.856796 0.000000 55870.859390 0.000000 0.000000 0.000000 0.000000 0.000000 0.000000 0.000000 20057.193885 54239.252118 130057.764073 233800.562160 46356.762057 0.000000 0.000000 95876.807122 0.000000 0.000000 121112.912648 0.000000 143035.992359 0.000000 113709.575763 0.000000 0.000000 78244.159918 256478.509959 0.000000 30619.625880 0.000000 264387.379698 0.000000 303355.687154 0.000000 0.000000 733.537488 6076.048488 84024.766718 0.000000 0.000000 0.000000 0.000000 0.000000 15076.322107 0.000000 0.000000 0.000000 106245.248848 0.000000 0.000000 0.000000 0.000000 0.000000 0.000000 26178.393937 68379.012330 0.000000 0.000000 0.000000 0.000000 0.000000 0.000000 137402.928371 0.000000 0.000000 0.000000 0.000000 12573.727413 0.000000 0.000000 0.000000 0.000000 0.000000 0.000000 0.000000 0.000000 11314.390498 52196.731267 0.000000 0.000000 0.000000 167584.911788 0.000000 26055.829886 0.000000 24858.744070 27398.040882 50784.126823 0.000000 0.000000 0.000000 0.000000 0.000000 0.000000 0.000000 0.000000 0.000000 0.000000 0.000000 0.000000 24554.987132 52227.428819 0.000000 0.000000 85317.142459 137680.073911 0.000000 30203.365388 0.000000 92352.959565 0.000000 0.000000 66087.756789 0.000000 0.000000 0.000000 0.000000 31264.306526 0.000000 7451.695355 0.000000 0.000000 0.000000 0.000000 12409.222223 393322.779138 0.000000 55688.550044 215837.538019 0.000000 0.000000 0.000000 0.000000 0.000000 0.000000 58125.561489 0.000000 0.000000 21847.608109 65815.541523 0.000000 0.000000 0.000000 0.000000 0.000000 0.000000 16216.600248 3362.076127 0.000000 0.000000 68430.490862 0.000000 0.000000 0.000000 0.000000 123401.826273 9628.244951 0.000000 0.000000 0.000000 0.000000 0.000000 0.000000 52040.685416 33786.028364 0.000000 176471.234397 42058.678760 55077.612813 34963.118382 0.000000 0.000000 16258.538743 0.000000 0.000000 0.000000 0.000000 0.000000 48304.203276 0.000000 2231.819689 11703.519404 0.000000 0.000000 104046.044355 79979.368789 0.000000 0.000000 0.000000 0.000000 0.000000 0.000000 36858.142940 105092.125252 0.000000 0.000000 0.000000 32714.462074 0.000000 0.000000 0.000000 163083.421640 0.000000 0.000000 0.000000 0.000000 0.000000 0.000000 0.000000 0.000000 0.000000 46823.891974 0.000000 0.000000 0.000000 94132.759896 58903.856827 0.000000 0.000000 0.000000 216545.913653 66633.036917 63440.268360 0.000000 219262.784623 0.000000 149480.795589 0.000000 0.000000 0.000000 0.000000 7754.748191 198849.173330 0.000000 0.000000 0.000000 0.000000 0.000000 15924.440013 61013.501558 0.000000 27411.044880 8944.909383 18921.238113 7197.559936 0.000000 0.000000 0.000000 0.000000 0.000000 159749.194480 0.000000 0.000000 0.000000 0.000000 0.000000 0.000000 0.000000 0.000000 0.000000 0.000000 79642.498982 0.000000 0.000000 0.000000 0.000000 0.000000 197678.628229 248800.491449 23838.093922 0.000000 0.000000 7185.975280 0.000000 0.000000 0.000000 0.000000 0.000000 0.000000 0.000000 0.000000 0.000000 0.000000 0.000000 16751.875269 104505.890782 0.000000 0.000000 32679.948680 0.000000 0.000000 0.000000 0.000000 237021.838521 147667.582295 56175.675706 0.000000 0.000000 11391.651026 87315.848262 0.000000 0.000000 0.000000 0.000000 0.000000 0.000000 12054.802612 161044.311641 0.000000 0.000000 0.000000 0.000000 0.000000 16629.888835 0.000000 74906.910631 0.000000 0.000000 0.000000 0.000000 0.000000 8630.114203 0.000000 0.000000 104705.494367 0.000000 0.000000 0.000000 0.000000 0.000000 21441.685983 107011.278903 0.000000 0.000000 0.000000 0.000000 0.000000 183620.871549 19915.447086 0.000000 0.000000 21969.912449 500738.944250 0.000000 0.000000 0.000000 0.000000 0.000000 0.000000 0.000000 58828.475302 0.000000 0.000000 0.000000 0.000000 0.000000 46501.553878 0.000000 0.000000 0.000000 0.000000 0.000000 0.000000 0.000000 0.000000 0.000000 0.000000 0.000000 0.000000 0.000000 0.000000 0.000000 0.000000 0.000000 0.000000 0.000000 32637.945078 133201.771493 0.000000 8526.794514 42543.795541 0.000000 13616.679585 0.000000 49367.089795 0.000000 0.000000 0.000000 16099.767458 976.415867 0.000000 0.000000 0.000000 0.000000 0.000000 0.000000 122506.633792 7668.676372 760339.056261 3579.783003 0.000000 0.000000 77042.815083 0.000000 0.000000 29718.241231 7767.427764 119673.335289 0.000000 0.000000 0.000000 0.000000 134253.135387 0.000000 0.000000 0.000000 0.000000 0.000000 0.000000 0.000000 0.000000 0.000000 41342.556252 133573.643939 0.000000 73391.821671 250898.244542 60844.397126 0.000000 0.000000 0.000000 0.000000 0.000000 445381.402955 0.000000 185871.270850 0.000000 0.000000 0.000000 0.000000 33686.779125 0.000000 30168.286719 0.000000 0.000000 0.000000 0.000000 0.000000 0.000000 0.000000 0.000000 0.000000 2388.959425 194624.678391 51734.424289 19013.812651 0.000000 19519.982014 0.000000 0.000000 0.000000 0.000000 4534.066594 0.000000 0.000000 0.000000 0.000000 0.000000 3834.576356 0.000000 0.000000 125.154309 93955.466824 76328.734717 0.000000 64220.016875 0.000000 0.000000 0.000000 0.000000 0.000000 0.000000 0.000000 0.000000 0.000000 64323.672139 0.000000 0.000000 0.000000 0.000000 0.000000 0.000000 0.000000 34892.918231 67888.609669 0.000000 84269.649887 0.000000 0.000000 0.000000 45348.670753 0.000000 0.000000 0.000000 0.000000 0.000000 0.000000 0.000000 100401.010145 0.000000 0.000000 0.000000 0.000000 0.000000 1630.178295 0.000000 0.000000 0.000000 0.000000 0.000000 29053.482707 29053.482707 0.000000 137789.001909 0.000000 0.000000 0.000000 88803.164404 0.000000 55631.715984 0.000000 0.000000 0.000000 0.000000 0.000000 163309.492603 0.000000 0.000000 0.000000 167039.304501 0.000000 0.000000 410413.436206 262392.477603 0.000000 55090.411465 0.000000 0.000000 78038.005357 0.000000 0.000000 0.000000 89566.480302 0.000000 0.000000 0.000000 0.000000 0.000000 0.000000 0.000000 31914.172097 46504.109174 0.000000 95629.680567 23074.704847 0.000000 0.000000 58078.065733 86241.163489 0.000000 0.000000 0.000000 0.000000 34376.863757 173441.476217 0.000000 0.000000 0.000000 4102.723762 0.000000 0.000000 167849.146344 0.000000 26108.633836 0.000000 149516.667402 31475.875045 0.000000 0.000000 3389.844032 94821.579591 0.000000 0.000000 29951.557269 0.000000 0.000000 364709.203598 0.000000 0.000000 0.000000 406850.951005 0.000000 0.000000 0.000000 0.000000 0.000000 26974.725520 1504.746431 0.000000 0.000000 0.000000 0.000000 0.000000 14.812991 0.000000 0.000000 0.000000 0.000000 0.000000 0.000000 15772.907802 12108.368573 0.000000 0.000000 0.000000 0.000000 0.000000 78951.742392 169741.667421 0.000000 0.000000 0.000000 0.000000 0.000000 57576.143662 49629.428746 0.000000 0.000000 0.000000 0.000000 0.000000 9452.360990 6862.155631 0.000000 0.000000 0.000000 0.000000 0.000000 16867.871544 103953.393198 0.000000 0.000000 0.000000 0.000000 0.000000 27620.241992 151829.688312 0.000000 0.000000 0.000000 0.000000 0.000000 16586.962459 76669.495967 0.000000 0.000000 0.000000 0.000000 0.000000 4673.360046 43510.572310 0.000000 0.000000 0.000000 0.000000 0.000000 8640.630148 59355.242451 0.000000 0.000000 0.000000 0.000000 0.000000 10220.418407 10438.964647 0.000000 0.000000 0.000000 0.000000 0.000000 24074.296956 63792.641250 0.000000 0.000000 0.000000 0.000000 0.000000 53066.432307 165549.072555 0.000000 0.000000 0.000000 0.000000 0.000000 22366.844392 24834.921856 0.000000 0.000000 0.000000 0.000000 0.000000 9019.116871 68212.444050 0.000000 0.000000 0.000000 0.000000 0.000000 14084.202338 100312.608565 0.000000 0.000000 0.000000 0.000000 0.000000 35803.596643 134211.615130 0.000000 0.000000 0.000000 0.000000 0.000000 39081.807548 81758.690359 0.000000 0.000000 0.000000 0.000000 0.000000 57851.461916 67696.725269 0.000000 0.000000 0.000000 0.000000 0.000000 80288.982686 231899.654329 0.000000 0.000000 0.000000 0.000000 0.000000 58486.180261 122557.577001 0.000000 0.000000 0.000000 0.000000 0.000000 20359.292673 30738.179040 0.000000 0.000000 0.000000 0.000000 0.000000 33841.262812 256451.756921 0.000000 0.000000 0.000000 0.000000 0.000000 43263.907735 334602.985654 0.000000 0.000000 0.000000 0.000000 0.000000 37201.207584 214700.555548 0.000000 0.000000 0.000000 0.000000 0.000000 14386.849414 102032.752512 0.000000 0.000000 0.000000 0.000000 0.000000 0.000000 18205.400538 0.000000 0.000000 0.000000 0.000000 0.000000 0.000000 0.000000 0.000000 0.000000 0.000000 0.000000 0.000000 0.000000 27598.334703 0.000000 0.000000 0.000000 0.000000 0.000000 0.000000 19860.211861 0.000000 0.000000 0.000000 0.000000 0.000000 1899.678477 0.000000 0.000000 0.000000 0.000000 0.000000 0.000000 26675.994225 108636.443334 0.000000 0.000000 0.000000 0.000000 0.000000 25101.135224 59552.614962 0.000000 0.000000 0.000000 0.000000 0.000000 39815.771141 25582.047714 0.000000 0.000000 0.000000 0.000000 0.000000 127969.795077 310396.818022 0.000000 0.000000 0.000000 0.000000 0.000000 73379.011931 147833.117814 0.000000 0.000000 0.000000 0.000000 0.000000 57008.578287 105849.168628 0.000000 0.000000 0.000000 0.000000 0.000000 31179.817331 68001.862340 0.000000 0.000000 0.000000 0.000000 0.000000 18560.380057 39843.773792 0.000000 0.000000 0.000000 0.000000 0.000000 6880.902059 8726.006687 0.000000 0.000000 0.000000 0.000000 0.000000 6526.973929 12403.577202 0.000000 0.000000 0.000000 0.000000 0.000000 20974.481814 82950.118176 0.000000 0.000000 0.000000 0.000000 0.000000 42546.872686 269843.313010 0.000000 0.000000 0.000000 0.000000 0.000000 28377.015723 110274.415743 0.000000 0.000000 0.000000 0.000000 0.000000 88796.713787 315430.147774 0.000000 0.000000 0.000000 0.000000 0.000000 88753.343239 305693.793133 0.000000 0.000000 0.000000 0.000000 0.000000 19720.492040 49813.499924 0.000000 0.000000 0.000000 0.000000 0.000000 17390.627074 94410.767280 0.000000 0.000000 0.000000 0.000000 0.000000 18367.934564 44670.163953 0.000000 0.000000 0.000000 0.000000 0.000000 26228.507007 30415.623743 0.000000 0.000000 0.000000 0.000000 0.000000 27008.353640 55477.704947 0.000000 0.000000 0.000000 0.000000 0.000000 32931.752901 69781.843261 0.000000 0.000000 0.000000 0.000000 0.000000 63729.815007 146388.041473 0.000000 0.000000 0.000000 0.000000 0.000000 28357.022984 46668.866812 0.000000 0.000000 0.000000 0.000000 0.000000 17499.771169 15557.513536 0.000000 0.000000 0.000000 0.000000 0.000000 24082.400548 67073.451062 0.000000 0.000000 0.000000 0.000000 0.000000 76186.251452 308969.789923 0.000000 0.000000 0.000000 0.000000 0.000000 71428.535891 141126.236970 0.000000 0.000000 0.000000 0.000000 0.000000 59293.552280 50532.701117 0.000000 0.000000 0.000000 0.000000 0.000000 25251.792380 37553.028141 0.000000 0.000000 0.000000 0.000000 0.000000 15015.781706 76794.148158 0.000000 0.000000 0.000000 0.000000 0.000000 4092.382663 40258.447746 0.000000 0.000000 0.000000 0.000000 0.000000 3177.856602 32412.388400 0.000000 0.000000 0.000000 0.000000 0.000000 4906.315925 28660.597102 0.000000 0.000000 0.000000 0.000000 0.000000 1705.528808 0.000000 0.000000 0.000000 0.000000 0.000000 0.000000 18973.122911 42666.599157 0.000000 0.000000 0.000000 0.000000 0.000000 61619.475691 216215.477312 0.000000 0.000000 0.000000 0.000000 0.000000 62540.094582 151366.166752 0.000000 0.000000 0.000000 0.000000 0.000000 21605.932189 71870.850786 0.000000 0.000000 0.000000 0.000000 0.000000 25478.108391 128924.401418 0.000000 0.000000 0.000000 0.000000 0.000000 37620.433905 265731.597038 0.000000 0.000000 0.000000 0.000000 0.000000 28265.789462 324106.392513 0.000000 0.000000 0.000000 0.000000 0.000000 8675.294694 73657.970544 0.000000 0.000000 0.000000 0.000000 0.000000 4135.302523 0.000000 0.000000 0.000000 0.000000 0.000000 0.000000 40599.698243 151981.176542 0.000000 0.000000 0.000000 0.000000 0.000000 32048.265319 141329.770656 0.000000 0.000000 0.000000 0.000000 0.000000 21065.686943 159828.458676 0.000000 0.000000 0.000000 0.000000 0.000000 33341.876047 192804.918928 0.000000 0.000000 0.000000 0.000000 0.000000 24444.576164 102068.527470 0.000000 0.000000 0.000000 0.000000 0.000000 7643.263076 70875.606652 0.000000 0.000000 0.000000 0.000000 0.000000 1012.684478 19060.125235 11961.971823 0.000000 0.000000 0.000000 0.000000 0.000000 0.000000 0.000000 0.000000 0.000000 0.000000 0.000000 0.000000 0.000000 0.000000 0.000000 0.000000 0.000000 0.000000 0.000000 0.000000 0.000000 0.000000 0.000000 0.000000 0.000000 0.000000 0.000000 0.000000 0.000000 0.000000 0.000000 0.000000 0.000000 0.000000 0.000000 0.000000 0.000000 0.000000 0.000000 0.000000 0.000000 0.000000 0.000000 0.000000 0.000000 0.000000 0.000000 0.000000 0.000000 0.000000 0.000000 0.000000 0.000000 0.000000 0.000000 0.000000 0.000000 0.000000 0.000000 0.000000 0.000000 0.000000 0.000000 0.000000 0.000000 0.000000 0.000000 0.000000 0.000000 0.000000 0.000000 0.000000 0.000000 0.000000 0.000000 0.000000 0.000000 0.000000 0.000000 0.000000 0.000000 0.000000 0.000000 0.000000 0.000000 0.000000 0.000000 0.000000 0.000000 0.000000 0.000000 0.000000 0.000000 0.000000 0.000000 0.000000 0.000000 0.000000 0.000000 0.000000 0.000000 0.000000 0.000000 0.000000 0.000000 0.000000 0.000000 0.000000 0.000000 0.000000 0.000000 0.000000 0.000000 0.000000 0.000000 0.000000 0.000000 0.000000 0.000000 0.000000 0.000000 0.000000 0.000000 0.000000 0.000000 0.000000 0.000000 0.000000 0.000000 0.000000 0.000000 0.000000 0.000000 0.000000 0.000000 0.000000 0.000000 0.000000 0.000000 0.000000 0.000000 0.000000 0.000000 0.000000 0.000000 0.000000 0.000000 0.000000 0.000000 0.000000 0.000000 0.000000 0.000000 0.000000 0.000000 0.000000 0.000000 0.000000 0.000000 0.000000 0.000000 0.000000 0.000000 0.000000 0.000000 0.000000
</DataArray>
<DataArray type="Float64" Name="Velocity" NumberOfComponents="3" format="ascii">