<VTKFile type="PolyData">
<PolyData>
<Piece NumberOfPoints="1840" NumberOfVerts="1840" NumberOfLines="0" NumberOfStrips="0" NumberOfPolys="0">
<PointData>
<DataArray type="Float64" Name="Pressure" format="ascii">
 0.000000 0.000000 0.000000 0.000000 0.000000 0.000000 0.000000 0.000000 0.000000 0.000000 0.000000 0.000000 0.000000 0.000000 0.000000 0.000000 0.000000 0.000000 0.000000 0.000000 0.000000 0.000000 0.000000 0.000000 0.000000 0.000000 0.000000 0.000000 0.000000 0.000000 0.000000 0.000000 0.000000 0.000000 0.000000 0.000000 0.000000 0.000000 0.000000 0.000000 0.000000 0.000000 0.000000 0.000000 0.000000 0.000000 0.000000 0.000000 0.000000 0.000000 0.000000 0.000000 0.000000 0.000000 0.000000 0.000000 0.000000 0.000000 0.000000 0.000000 0.000000 0.000000 0.000000 0.000000 0.000000 0.000000 0.000000 0.000000 0.000000 0.000000 0.000000 0.000000 0.000000 0.000000 0.000000 0.000000 0.000000 0.000000 0.000000 0.000000 0.000000 0.000000 0.000000 0.000000 0.000000 0.000000 0.000000 0.000000 0.000000 0.000000 0.000000 0.000000 0.000000 0.000000 0.000000 0.000000 0.000000 0.000000 0.000000 0.000000 0.000000 0.000000 0.000000 0.000000 0.000000 0.000000 0.000000 0.000000 0.000000 0.000000 0.000000 0.000000 0.000000 0.000000 0.000000 0.000000 0.000000 0.000000 0.000000 16225.117256 57534.120163 28348.760461 8319.770280 41564.842405 43815.330721 14052.204486 17164.859368 1016.534771 0.000000 3563.694772 10830.768171 30192.669405 6682.617022 0.000000 0.000000 0.000000 0.000000 0.000000 0.000000 0.000000 0.000000 0.000000 0.000000 0.000000 0.000000 0.000000 0.000000 0.000000 0.000000 0.000000 0.000000 0.000000 0.000000 0.000000 0.000000 0.000000 0.000000 0.000000 0.000000 0.000000 0.000000 0.000000 0.000000 0.000000 0.000000 0.000000 0.000000 0.000000 0.000000 0.000000 0.000000 0.000000 0.000000 91.988796 3133.503132 0.000000 5455.840824 78281.046024 81098.904548 11888.116067 65180.874735 93835.684917 0.000000 0.000000 0.000000 0.000000 0.000000 13115.400169 129236.078419 0.000000 0.000000 0.000000 0.000000 0.000000 0.000000 0.000000 0.000000 0.000000 0.000000 0.000000 0.000000 0.000000 0.000000 0.000000 0.000000 0.000000 0.000000 0.000000 0.000000 0.000000 0.000000 0.000000 0.000000 0.000000 0.000000 0.000000 0.000000 0.000000 0.000000 0.000000 0.000000 0.000000 0.000000 0.000000 0.000000 0.000000 0.000000 0.000000 0.000000 0.000000 6459.819802 70334.617651 211718.898685 15344.925558 473460.047359 0.000000 0.000000 219058.182129 17633.231748 0.000000 0.000000 0.000000 0.000000 140532.598996 20755.011312 268709.416991 0.000000 0.000000 0.000000 0.000000 579833.218179 24905.122809 0.000000 0.000000 0.000000 0.000000 171979.460910 0.000000 244603.142251 215485.351977 0.000000 0.000000 115756.667003 0.000000 0.000000 38821.250279 0.000000 0.000000 37241.649008 0.000000 0.000000 0.000000 0.000000 0.000000 0.000000 0.000000 6440.599563 57125.775848 0.000000 0.000000 0.000000 70985.764662 81397.463816 0.000000 0.000000 99516.401849 88223.690592 0.000000 0.000000 0.000000 0.000000 0.000000 0.000000 0.000000 532929.021705 0.000000 0.000000 49847.123197 0.000000 0.000000 0.000000 481210.332619 0.000000 113.976523 93244.190274 20052.059822 0.000000 50997.499175 0.000000 116815.936928 0.000000 6300.733079 70959.424403 0.000000 13955.875572 36651.922658 191080.166709 0.000000 0.000000 0.000000 0.000000 0.000000 16253.102014 68121.500769 0.000000 0.000000 342085.761894 0.000000 0.000000 0.000000 0.000000 5186.956298 0.000000 76666.290195 0.000000 0.000000 0.000000 0.000000 0.000000 38268.941701 0.000000 129072.300413 11984.945946 129032.974808 127439.099158 0.000000 0.000000 0.000000 0.000000 0.000000 0.000000 0.000000 180602.271956 0.000000 214072.897194 0.000000 0.000000 235491.795198 0.000000 0.000000 0.000000 119390.546273 0.000000 0.000000 0.000000 0.000000 0.000000 0.000000 27830.375144 296321.238492 0.000000 101890.089045 0.000000 432989.244252 0.000000 37327.959884 24251.885762 0.000000 0.000000 0.000000 66837.372234 0.000000 39362.472095 0.000000 140651.700298 40933.314371 77490.105090 0.000000 6915.978319 0.000000 159371.943739 0.000000 0.000000 0.000000 0.000000 169185.645761 0.000000 0.000000 0.000000 0.000000 0.000000 0.000000 0.000000 207234.493022 66249.736978 0.000000 352817.795314 156840.095564 0.000000 0.000000 0.000000 0.000000 0.000000 0.000000 8850.798603 101307.650148 0.000000 0.000000 0.000000 230332.670075 18056.491062 0.000000 0.000000 0.000000 43741.045882 115625.179134 0.000000 0.000000 0.000000 0.000000 0.000000 295590.803958 0.000000 0.000000 22099.034712 0.000000 0.000000 0.000000 0.000000 0.000000 19044.405208 0.000000 139827.481109 0.000000 0.000000 39306.785576 0.000000 0.000000 0.000000 0.000000 68478.697218 0.000000 0.000000 0.000000 0.000000 0.000000 0.000000 0.000000 0.000000 0.000000 60720.686480 257273.258992 691.860071 19478.605120 0.000000 0.000000 0.000000 219004.837676 158090.216884 0.000000 0.000000 0.000000 0.000000 0.000000 0.000000 0.000000 0.000000 46975.942333 2737.378104 0.000000 0.000000 13456.408473 0.000000 0.000000 0.000000 26251.739962 74877.883316 0.000000 0.000000 86992.652291 0.000000 23307.075631 8752.632371 0.000000 55833.487427 0.000000 0.000000 0.000000 0.000000 404514.049228 0.000000 0.000000 0.000000 0.000000 0.000000 0.000000 103822.266720 429286.000177 38577.110364 8999.047819 124041.300416 0.000000 4757.378558 0.000000 0.000000 0.000000 127170.294149 130910.907508 0.000000 0.000000 0.000000 0.000000 0.000000 0.000000 0.000000 212363.351726 78202.529530 221377.437813 0.000000 0.000000 0.000000 0.000000 30150.625082 393066.076092 0.000000 0.000000 0.000000 0.000000 0.000000 105684.368369 0.000000 0.000000 149817.988186 94369.458362 4050.529179 21673.064553 0.000000 0.000000 0.000000 0.000000 0.000000 0.000000 20214.166717 57901.858453 749.455898 24808.020776 0.000000 0.000000 0.000000 0.000000 0.000000 0.000000 19812.237752 13173.433547 0.000000 0.000000 0.000000 0.000000 0.000000 274.481180 69378.101238 0.000000 0.000000 52159.368336 72675.425542 0.000000 0.000000 71943.187656 0.000000 29247.007852 0.000000 0.000000 0.000000 0.000000 0.000000 0.000000 0.000000 62208.584698 0.000000 0.000000 0.000000 0.000000 102137.313840 0.000000 0.000000 0.000000 0.000000 0.000000 4536.031864 27347.487336 0.000000 0.000000 0.000000 0.000000 0.000000 0.000000 0.000000 0.000000 0.000000 0.000000 0.000000 0.000000 0.000000 0.000000 0.000000 0.000000 0.000000 0.000000 0.000000 0.000000 225985.908128 0.000000 0.000000 25373.309035 0.000000 0.000000 0.000000 0.000000 0.000000 91825.924665 156851.328744 0.000000 39395.579815 0.000000 0.000000 0.000000 0.000000 0.000000 0.000000 0.000000 0.000000 0.000000 0.000000 0.000000 22531.677370 124762.423285 14760.410025 67721.821395 12230.967187 0.000000 0.000000 82953.160421 0.000000 0.000000 81752.947178 86199.250282 0.000000 0.000000 0.000000 0.000000 0.000000 0.000000 0.000000 112535.551472 0.000000 0.000000 0.000000 33839.970927 7081.017176 0.000000 0.000000 0.000000 67066.270381 0.000000 0.000000 0.000000 2188.772367 0.000000 0.000000 0.000000 36572.256913 0.000000 0.000000 0.000000 0.000000 0.000000 0.000000 0.000000 0.000000 0.000000 54560.298027 213741.490176 94751.882294 0.000000 0.000000 0.000000 61096.332954 37170.095093 0.000000 112174.946925 0.000000 0.000000 0.000000 0.000000 0.000000 0.000000 0.000000 0.000000 0.000000 0.000000 0.000000 0.000000 0.000000 0.000000 0.000000 0.000000 0.000000 32373.155054 0.000000 0.000000 0.000000 56151.336631 0.000000 0.000000 0.000000 0.000000 77387.772693 105651.216835 0.000000 0.000000 0.000000 0.000000 0.000000 0.000000 0.000000 0.000000 41358.984388 176868.731567 355008.131929 0.000000 0.000000 18291.049284 129237.579840 0.000000 0.000000 0.000000 0.000000 0.000000 0.000000 160580.983436 0.000000 187400.130751 121966.267305 31379.459610 31457.731918 26561.122725 26229.949012 0.000000 0.000000 2216.253286 0.000000 0.000000 105632.881037 20614.141365 0.000000 0.000000 103757.565867 0.000000 0.000000 0.000000 22608.841287 0.000000 111776.458623 0.000000 319744.754921 0.000000 0.000000 0.000000 0.000000 0.000000 0.000000 0.000000 18891.575048 183218.429103 0.000000 0.000000 0.000000 0.000000 0.000000 0.000000 0.000000 0.000000 0.000000 0.000000 0.000000 102394.280801 0.000000 0.000000 0.000000 191936.153566 5552.492087 0.000000 0.000000 100465.575143 0.000000 0.000000 0.000000 53549.424790 0.000000 0.000000 0.000000 0.000000 0.000000 76462.356776 78230.519301 0.000000 0.000000 0.000000 0.000000 0.000000 0.000000 0.000000 16668.353284 0.000000 0.000000 0.000000 0.000000 0.000000 6612.982356 97070.665683 0.000000 31650.292603 0.000000 71405.606747 0.000000 0.000000 0.000000 0.000000 0.000000 0.000000 25291.445426 0.000000 0.000000 0.000000 0.000000 0.000000 0.000000 34419.805765 0.000000 0.000000 0.000000 268201.965051 0.000000 0.000000 0.000000 0.000000 86120.091171 0.000000 0.000000 0.000000 0.000000 0.000000 0.000000 0.000000 0.000000 0.000000 0.000000 0.000000 0.000000 0.000000 0.000000 0.000000 0.000000 0.000000 0.000000 0.000000 0.000000 0.000000 0.000000 1373.768117 1251.260845 0.000000 0.000000 0.000000 0.000000 0.000000 12412.004824 64743.568427 0.000000 0.000000 0.000000 50886.137560 0.000000 0.000000 0.000000 0.000000 0.000000 0.000000 0.000000 361751.943696 0.000000 0.000000 0.000000 0.000000 0.000000 0.000000 234750.294189 0.000000 0.000000 16606.611301 0.000000 0.000000 19769.598394 0.000000 0.000000 0.000000 0.000000 0.000000 0.000000 0.000000 1389.686493 0.000000 0.000000 0.000000 0.000000 54120.285625 0.000000 0.000000 166296.578229 10483.747986 0.000000 0.000000 0.000000 0.000000 0.000000 0.000000 0.000000 0.000000 78440.895862 0.000000 0.000000 0.000000 0.000000 0.000000 0.000000 25162.991914 47265.135509 15972.251289 123080.183828 0.000000 50372.746703 6245.978809 0.000000 36295.143450 0.000000 83828.903706 40366.664779 120436.604689 0.000000 0.000000 0.000000 0.000000 0.000000 0.000000 0.000000 0.000000 8277.804282 31234.036457 44080.996782 0.000000 0.000000 55341.001276 221323.547491 0.000000 0.000000 0.000000 110787.974490 0.000000 0.000000 16223.944962 0.000000 0.000000 37074.509883 0.000000 0.000000 0.000000 0.000000 0.000000 27231.949671 0.000000 0.000000 36396.327173 5451.895740 0.000000 0.000000 0.000000 0.000000 0.000000 0.000000 0.000000 0.000000 0.000000 0.000000 0.000000 0.000000 0.000000 0.000000 0.000000 0.000000 0.000000 0.000000 0.000000 10500.200722 42024.828264 0.000000 0.000000 0.000000 0.000000 0.000000 0.000000 0.000000 84048.465817 108721.589290 3239.943652 0.000000 0.000000 0.000000 0.000000 0.000000 0.000000 8816.360768 0.000000 3032.814329 0.000000 0.000000 0.000000 0.000000 0.000000 334383.550871 0.000000 0.000000 0.000000 60299.993331 4139.783675 0.000000 0.000000 43997.985626 0.000000 58286.291475 0.000000 0.000000 0.000000 0.000000 0.000000 0.000000 0.000000 0.000000 0.000000 10494.046225 72983.256422 78069.260523 0.000000 60116.920228 0.000000 0.000000 0.000000 222853.285024 0.000000 122682.685545 0.000000 0.000000 0.000000 0.000000 23933.840191 0.000000 15160.983894 0.000000 124548.768663 0.000000 33112.642358 0.000000 0.000000 0.000000 0.000000 19915.458720 3816.334274 287971.364030 0.000000 40617.712657 0.000000 0.000000 0.000000 33178.804985 0.000000 0.000000 0.000000 23990.916979 0.000000 0.000000 0.000000 0.000000 0.000000 0.000000 0.000000 10068.347591 114724.431520 0.000000 0.000000 0.000000 0.000000 0.000000 7372.649732 105279.988039 0.000000 0.000000 0.000000 0.000000 0.000000 1241.415678 17822.242625 0.000000 0.000000 0.000000 0.000000 0.000000 6681.424456 42922.051586 0.000000 0.000000 0.000000 0.000000 0.000000 21057.318319 110505.130628 0.000000 0.000000 0.000000 0.000000 0.000000 10601.319424 51000.231331 0.000000 0.000000 0.000000 0.000000 0.000000 7712.620360 75568.541247 0.000000 0.000000 0.000000 0.000000 0.000000 8036.420726 118196.756271 0.000000 0.000000 0.000000 0.000000 0.000000 22032.674954 323471.330251 0.000000 0.000000 0.000000 0.000000 0.000000 31986.652568 253448.556991 0.000000 0.000000 0.000000 0.000000 0.000000 11822.966466 60921.344146 0.000000 0.000000 0.000000 0.000000 0.000000 22862.709318 94194.846823 0.000000 0.000000 0.000000 0.000000 0.000000 86656.307862 391210.037962 0.000000 0.000000 0.000000 0.000000 0.000000 50738.485359 126841.474796 0.000000 0.000000 0.000000 0.000000 0.000000 26889.456069 23835.110144 0.000000 0.000000 0.000000 0.000000 0.000000 27677.455059 43645.491204 0.000000 0.000000 0.000000 0.000000 0.000000 4125.482409 0.000000 0.000000 0.000000 0.000000 0.000000 0.000000 9811.567996 16028.258479 0.000000 0.000000 0.000000 0.000000 0.000000 3508.042169 0.000000 0.000000 0.000000 0.000000 0.000000 0.000000 1389.187619 0.000000 0.000000 0.000000 0.000000 0.000000 0.000000 31843.173487 124396.533561 0.000000 0.000000 0.000000 0.000000 0.000000 63804.985686 314438.990043 0.000000 0.000000 0.000000 0.000000 0.000000 20080.282064 58381.626827 0.000000 0.000000 0.000000 0.000000 0.000000 6530.342060 0.000000 0.000000 0.000000 0.000000 0.000000 0.000000 31612.303541 51031.792169 0.000000 0.000000 0.000000 0.000000 0.000000 56884.697894 104523.682683 0.000000 0.000000 0.000000 0.000000 0.000000 46724.034439 93140.027257 0.000000 0.000000 0.000000 0.000000 0.000000 55674.372042 102463.495321 0.000000 0.000000 0.000000 0.000000 0.000000 51028.781798 46556.607076 0.000000 0.000000 0.000000 0.000000 0.000000 90918.356969 161055.492338 0.000000 0.000000 0.000000 0.000000 0.000000 118986.590719 283225.606821 0.000000 0.000000 0.000000 0.000000 0.000000 66206.276911 112360.100905 0.000000 0.000000 0.000000 0.000000 0.000000 43983.782104 110044.268429 0.000000 0.000000 0.000000 0.000000 0.000000 19606.724980 37604.434263 0.000000 0.000000 0.000000 0.000000 0.000000 21824.872767 4303.165689 0.000000 0.000000 0.000000 0.000000 0.000000 47991.137405 69498.877030 0.000000 0.000000 0.000000 0.000000 0.000000 18036.628900 73308.547628 0.000000 0.000000 0.000000 0.000000 0.000000 0.000000 5085.598522 0.000000 0.000000 0.000000 0.000000 0.000000 0.000000 0.000000 0.000000 0.000000 0.000000 0.000000 0.000000 0.000000 0.000000 0.000000 0.000000 0.000000 0.000000 0.000000 2898.111242 10253.055972 0.000000 0.000000 0.000000 0.000000 0.000000 7496.996490 76463.038201 0.000000 0.000000 0.000000 0.000000 0.000000 0.000000 0.000000 0.000000 0.000000 0.000000 0.000000 0.000000 8540.530753 0.000000 0.000000 0.000000 0.000000 0.000000 0.000000 29514.908969 98721.599932 0.000000 0.000000 0.000000 0.000000 0.000000 48739.641522 144581.819596 0.000000 0.000000 0.000000 0.000000 0.000000 22205.713744 4956.355895 0.000000 0.000000 0.000000 0.000000 0.000000 0.000000 0.000000 0.000000 0.000000 0.000000 0.000000 0.000000 0.000000 0.000000 0.000000 0.000000 0.000000 0.000000 0.000000 5007.483992 35855.588974 0.000000 0.000000 0.000000 0.000000 0.000000 6696.205930 30521.624436 0.000000 0.000000 0.000000 0.000000 0.000000 22250.636145 50782.608249 0.000000 0.000000 0.000000 0.000000 0.000000 13321.992389 36411.859174 0.000000 0.000000 0.000000 0.000000 0.000000 19783.911703 68917.403224 0.000000 0.000000 0.000000 0.000000 0.000000 38989.369446 78254.185435 0.000000 0.000000 0.000000 0.000000 0.000000 40858.815437 43450.353614 0.000000 0.000000 0.000000 0.000000 0.000000 10861.697724 0.000000 0.000000 0.000000 0.000000 0.000000 0.000000 13988.178852 25277.845055 0.000000 0.000000 0.000000 0.000000 0.000000 14614.852393 6992.039790 0.000000 0.000000 0.000000 0.000000 0.000000 32232.563193 52076.687357 0.000000 0.000000 0.000000 0.000000 0.000000 57595.971570 255363.075711 0.000000 0.000000 0.000000 0.000000 0.000000 28214.185732 87994.585227 0.000000 0.000000 0.000000 0.000000 0.000000 2674.062258 0.000000 0.000000 0.000000 0.000000 0.000000 0.000000 0.000000 0.000000 0.000000 0.000000 0.000000 0.000000 0.000000 1213.949243 0.000000 0.000000 0.000000 0.000000 0.000000 0.000000 2208.413594 0.000000 0.000000 0.000000 0.000000 0.000000 0.000000 16204.181412 0.000000 0.000000 0.000000 0.000000 0.000000 0.000000 60741.871785 16132.920791 0.000000 0.000000 0.000000 0.000000 0.000000 21565.884617 0.000000 0.000000 0.000000 0.000000 0.000000 0.000000 2722.612412 12881.655751 0.000000 0.000000 0.000000 0.000000 0.000000 15853.115386 149106.985005 0.000000 0.000000 0.000000 0.000000 0.000000 19223.295382 156497.263410 0.000000 0.000000 0.000000 0.000000 0.000000 23241.387895 89247.240966 0.000000 0.000000 0.000000 0.000000 0.000000 13273.763355 21262.622863 0.000000 0.000000 0.000000 0.000000 0.000000 14006.253748 28201.039282 0.000000 0.000000 0.000000 0.000000 0.000000 22211.116367 85564.163528 0.000000 0.000000 0.000000 0.000000 0.000000 26210.796013 116657.972191 0.000000 0.000000 0.000000 0.000000 0.000000 4922.391499 0.000000 0.000000 0.000000 0.000000 0.000000 0.000000 6812.313569 0.000000 0.000000 0.000000 0.000000 0.000000 0.000000 15436.639399 103133.453456 0.000000 0.000000 0.000000 0.000000 0.000000 5400.764314 58045.188759 0.000000 0.000000 0.000000 0.000000 0.000000 0.000000 3967.471064 0.000000 0.000000 0.000000 0.000000 0.000000 0.000000 7627.525421 0.000000 0.000000 0.000000 0.000000 0.000000 0.000000 0.000000 0.000000 0.000000 0.000000 0.000000 0.000000 0.000000 0.000000 0.000000 0.000000 0.000000 0.000000 0.000000 0.000000 0.000000 0.000000 0.000000 0.000000 0.000000 0.000000 0.000000 0.000000 0.000000 0.000000 0.000000 0.000000 0.000000 0.000000 0.000000 0.000000 0.000000 0.000000 0.000000 0.000000 0.000000 0.000000 0.000000 0.000000 0.000000 0.000000 0.000000 0.000000 0.000000 0.000000 0.000000 0.000000 0.000000 0.000000 0.000000 0.000000 0.000000 0.000000 0.000000 0.000000 0.000000 0.000000 0.000000 0.000000 0.000000 0.000000 0.000000 0.000000 0.000000 0.000000 0.000000 0.000000 0.000000 0.000000 0.000000 0.000000 0.000000 0.000000 0.000000 0.000000 0.000000 0.000000 0.000000 0.000000 0.000000 0.000000 0.000000 0.000000 0.000000 0.000000 0.000000 0.000000 0.000000 0.000000 0.000000 0.000000 0.000000 0.000000 0.000000 0.000000 0.000000 0.000000 0.000000 0.000000 0.000000 0.000000 0.000000 0.000000 0.000000 0.000000 0.000000 0.000000 0.000000 0.000000 0.000000 0.000000 0.000000 0.000000 0.000000 0.000000 0.000000 0.000000 0.000000 0.000000 0.000000 0.000000 0.000000 0.000000 0.000000 0.000000 0.000000 0.000000 0.000000 0.000000 0.000000 0.000000 0.000000 0.000000 0.000000 0.000000 0.000000 0.000000 0.000000 0.000000 0.000000 0.000000 0.000000 0.000000 0.000000 0.000000 0.000000 0.000000 0.000000 0.000000 0.000000 0.000000 0.000000 0.000000 0.000000 0.000000
</DataArray>
<DataArray type="Float64" Name="Velocity" NumberOfComponents="3" format="ascii">