<VTKFile type="PolyData">
<PolyData>
<Piece NumberOfPoints="1840" NumberOfVerts="1840" NumberOfLines="0" NumberOfStrips="0" NumberOfPolys="0">
<PointData>
<DataArray type="Float64" Name="Pressure" format="ascii">
 0.000000 0.000000 0.000000 0.000000 0.000000 0.000000 0.000000 0.000000 0.000000 0.000000 0.000000 0.000000 0.000000 0.000000 0.000000 0.000000 0.000000 0.000000 0.000000 0.000000 0.000000 0.000000 0.000000 0.000000 0.000000 0.000000 0.000000 0.000000 0.000000 0.000000 0.000000 0.000000 0.000000 0.000000 0.000000 0.000000 0.000000 0.000000 0.000000 0.000000 0.000000 0.000000 0.000000 0.000000 0.000000 0.000000 0.000000 0.000000 0.000000 0.000000 0.000000 0.000000 0.000000 0.000000 0.000000 0.000000 0.000000 0.000000 0.000000 0.000000 0.000000 0.000000 0.000000 0.000000 0.000000 0.000000 0.000000 0.000000 0.000000 0.000000 0.000000 0.000000 0.000000 0.000000 0.000000 0.000000 0.000000 0.000000 0.000000 0.000000 0.000000 0.000000 0.000000 0.000000 0.000000 0.000000 0.000000 0.000000 0.000000 0.000000 0.000000 0.000000 0.000000 0.000000 0.000000 0.000000 0.000000 0.000000 0.000000 0.000000 0.000000 0.000000 0.000000 0.000000 0.000000 0.000000 0.000000 0.000000 0.000000 0.000000 0.000000 0.000000 0.000000 0.000000 0.000000 0.000000 0.000000 347.129873 5208.181919 11749.147586 4786.991485 0.000000 0.000000 0.000000 0.000000 0.000000 0.000000 0.000000 0.000000 0.000000 0.000000 0.000000 0.000000 0.000000 0.000000 0.000000 0.000000 0.000000 0.000000 0.000000 0.000000 0.000000 0.000000 0.000000 0.000000 0.000000 0.000000 0.000000 0.000000 0.000000 0.000000 0.000000 0.000000 0.000000 0.000000 0.000000 0.000000 0.000000 0.000000 0.000000 0.000000 0.000000 0.000000 0.000000 0.000000 0.000000 0.000000 0.000000 0.000000 0.000000 0.000000 0.000000 0.000000 0.000000 0.000000 18845.057468 49835.343497 0.000000 0.000000 0.000000 0.000000 0.000000 0.000000 0.000000 0.000000 0.000000 0.000000 0.000000 0.000000 0.000000 0.000000 0.000000 0.000000 0.000000 0.000000 0.000000 0.000000 0.000000 0.000000 0.000000 0.000000 0.000000 0.000000 0.000000 0.000000 0.000000 0.000000 0.000000 0.000000 0.000000 0.000000 0.000000 0.000000 0.000000 0.000000 0.000000 0.000000 0.000000 0.000000 0.000000 0.000000 0.000000 0.000000 0.000000 0.000000 0.000000 0.000000 0.000000 0.000000 0.000000 3224.482429 1081.089195 0.000000 0.000000 0.000000 0.000000 0.000000 0.000000 15040.665823 0.000000 82635.506948 0.000000 0.000000 0.000000 0.000000 78421.529019 3741.018733 16055.630004 37452.212488 25771.547800 0.000000 12238.105302 0.000000 0.000000 0.000000 43799.401147 29832.302516 0.000000 29508.384204 81577.067868 86170.351906 0.000000 0.000000 0.000000 76402.747384 38232.810053 0.000000 0.000000 134749.634703 7164.961328 0.000000 0.000000 0.000000 0.000000 0.000000 0.000000 25490.766202 62574.469030 0.000000 0.000000 0.000000 47469.497982 109554.022030 127738.615433 0.000000 0.000000 0.000000 15090.573329 0.000000 0.000000 0.000000 42935.415051 0.000000 30341.081867 5586.898135 365.841973 58200.418393 90676.808537 36965.268465 30946.115888 0.000000 0.000000 159602.614130 0.000000 0.000000 79385.834309 0.000000 15325.845788 37326.043092 0.000000 0.000000 166320.617460 47216.155026 0.000000 37801.630562 13120.425646 0.000000 0.000000 0.000000 0.000000 0.000000 0.000000 48670.496520 109663.230258 0.000000 72608.699094 0.000000 0.000000 0.000000 0.000000 89660.530255 84939.246935 31659.259444 139345.280013 0.000000 16518.255881 10608.312961 0.000000 0.000000 3532.580132 0.000000 0.000000 0.000000 54311.290060 6534.117679 0.000000 0.000000 102570.484902 56398.116109 0.000000 0.000000 66929.038757 33446.977371 0.000000 0.000000 6984.914309 0.000000 112115.536274 19367.467937 33951.483628 31089.966373 0.000000 0.000000 0.000000 0.000000 0.000000 0.000000 0.000000 35537.755078 69600.168207 0.000000 0.000000 11880.032194 68883.011022 11590.355433 37795.814959 121.917896 0.000000 0.000000 47477.972928 112415.473082 24000.145626 34188.724937 0.000000 0.000000 13214.233953 0.000000 5302.986394 0.000000 0.000000 0.000000 0.000000 0.000000 69469.433231 0.000000 9257.148693 0.000000 0.000000 56650.307141 141749.459234 0.000000 55871.643441 27925.435433 0.000000 43498.564235 0.000000 0.000000 0.000000 0.000000 0.000000 0.000000 0.000000 0.000000 0.000000 19655.897533 44916.559138 0.000000 324337.704492 0.000000 0.000000 0.000000 0.000000 0.000000 245144.399384 0.000000 0.000000 0.000000 0.000000 0.000000 137595.852138 0.000000 0.000000 0.000000 78430.188505 0.000000 22894.031212 9944.100074 0.000000 0.000000 0.000000 64003.652936 0.000000 0.000000 8110.237021 49044.344747 65403.149799 24011.717211 0.000000 34318.142509 0.000000 60052.233163 42407.350205 0.000000 161955.280003 0.000000 0.000000 0.000000 0.000000 0.000000 0.000000 9593.021433 64614.147372 239896.008494 8698.800551 0.000000 14519.714119 0.000000 0.000000 357607.139215 0.000000 0.000000 10339.346381 6369.502897 4340.734556 0.000000 0.000000 0.000000 0.000000 0.000000 0.000000 94889.757809 276456.118420 0.000000 0.000000 0.000000 0.000000 0.000000 0.000000 0.000000 22266.340002 0.000000 54346.344465 0.000000 0.000000 0.000000 0.000000 0.000000 110480.809904 98400.085820 143957.142470 2875.598690 0.000000 0.000000 0.000000 0.000000 0.000000 7075.847451 55064.440746 0.000000 118930.251962 20246.494901 125776.324977 21427.370560 0.000000 0.000000 135126.689570 296850.161994 388174.344612 16020.119073 0.000000 0.000000 0.000000 0.000000 0.000000 0.000000 0.000000 32358.889471 0.000000 0.000000 144569.415695 87997.696670 0.000000 214088.277087 9173.128774 0.000000 76018.722752 0.000000 0.000000 0.000000 0.000000 0.000000 0.000000 0.000000 0.000000 0.000000 0.000000 0.000000 0.000000 0.000000 0.000000 0.000000 0.000000 18044.449900 34097.576995 0.000000 19455.180334 0.000000 0.000000 0.000000 359726.560623 17385.415587 0.000000 0.000000 0.000000 172883.946203 376382.171628 0.000000 0.000000 2905.223241 139067.691025 154786.341466 127376.725369 0.000000 6870.913495 0.000000 22717.054401 0.000000 0.000000 0.000000 20074.783229 0.000000 0.000000 0.000000 0.000000 0.000000 0.000000 0.000000 18914.059625 0.000000 26112.784681 0.000000 0.000000 0.000000 0.000000 0.000000 0.000000 0.000000 0.000000 63147.724027 105838.341296 154491.580528 0.000000 0.000000 0.000000 0.000000 43534.499118 0.000000 139044.304409 0.000000 0.000000 0.000000 0.000000 0.000000 0.000000 0.000000 0.000000 87543.765748 0.000000 0.000000 0.000000 0.000000 0.000000 0.000000 21093.823639 0.000000 108797.154697 0.000000 180603.156011 0.000000 0.000000 43835.640659 0.000000 0.000000 0.000000 434882.006853 0.000000 46989.302187 0.000000 0.000000 0.000000 0.000000 0.000000 0.000000 0.000000 31977.887692 87533.543042 0.000000 0.000000 50011.845375 0.000000 0.000000 0.000000 57916.156327 0.000000 0.000000 0.000000 36398.280521 56761.015790 0.000000 39133.431380 0.000000 44880.959013 10503.526714 0.000000 139950.002737 0.000000 0.000000 0.000000 0.000000 0.000000 0.000000 0.000000 0.000000 0.000000 396820.317235 0.000000 0.000000 0.000000 21764.463918 56218.891866 0.000000 0.000000 0.000000 342663.146588 9937.714411 0.000000 0.000000 0.000000 0.000000 0.000000 12294.891364 78947.105381 0.000000 0.000000 0.000000 0.000000 0.000000 0.000000 0.000000 0.000000 0.000000 0.000000 0.000000 0.000000 0.000000 98435.631380 0.000000 0.000000 0.000000 0.000000 0.000000 0.000000 30834.369123 0.000000 250318.004316 36356.934656 0.000000 4973.195782 72755.450044 0.000000 0.000000 137340.456233 0.000000 5930.980102 27764.140689 0.000000 0.000000 0.000000 0.000000 0.000000 320459.539347 0.000000 0.000000 0.000000 0.000000 0.000000 6059.251145 48407.612791 0.000000 0.000000 0.000000 0.000000 0.000000 0.000000 0.000000 11477.088436 0.000000 0.000000 16319.549737 0.000000 0.000000 0.000000 20364.408112 0.000000 0.000000 0.000000 38767.323635 0.000000 42600.291638 0.000000 138480.811811 45598.914452 154704.645713 0.000000 0.000000 122358.190264 123916.746185 0.000000 19568.137467 0.000000 0.000000 0.000000 0.000000 0.000000 0.000000 0.000000 0.000000 0.000000 0.000000 0.000000 0.000000 0.000000 2897.575658 0.000000 0.000000 25209.437748 0.000000 0.000000 0.000000 37232.462019 0.000000 0.000000 0.000000 0.000000 15565.909498 0.000000 0.000000 75149.310258 0.000000 0.000000 0.000000 0.000000 97165.148062 0.000000 0.000000 0.000000 0.000000 0.000000 0.000000 0.000000 30677.788593 0.000000 0.000000 0.000000 0.000000 0.000000 0.000000 0.000000 0.000000 0.000000 0.000000 119749.751583 0.000000 0.000000 0.000000 0.000000 0.000000 0.000000 26056.730329 24050.844829 0.000000 0.000000 0.000000 0.000000 45354.053474 0.000000 0.000000 0.000000 226353.507343 0.000000 0.000000 0.000000 0.000000 0.000000 0.000000 0.000000 0.000000 0.000000 56827.889713 0.000000 0.000000 0.000000 0.000000 0.000000 0.000000 0.000000 0.000000 472569.065232 94819.961008 0.000000 0.000000 0.000000 0.000000 0.000000 0.000000 54698.027617 0.000000 0.000000 0.000000 0.000000 0.000000 0.000000 0.000000 0.000000 32636.498945 49874.356267 15828.972303 190560.049613 0.000000 0.000000 0.000000 7239.125987 0.000000 0.000000 85336.983384 32096.166441 0.000000 0.000000 0.000000 0.000000 0.000000 20981.386104 0.000000 0.000000 0.000000 32266.264385 100929.048890 0.000000 0.000000 0.000000 0.000000 0.000000 0.000000 11250.464607 0.000000 0.000000 0.000000 0.000000 0.000000 49633.573874 148619.506973 350563.495336 14348.987986 0.000000 0.000000 0.000000 0.000000 0.000000 0.000000 0.000000 4335.534976 0.000000 0.000000 109784.714555 31673.970918 0.000000 0.000000 0.000000 0.000000 0.000000 0.000000 0.000000 0.000000 0.000000 0.000000 0.000000 0.000000 0.000000 0.000000 0.000000 0.000000 237223.623213 172311.701267 0.000000 0.000000 0.000000 0.000000 4087.639233 0.000000 0.000000 0.000000 0.000000 131369.077281 0.000000 0.000000 19645.200205 0.000000 0.000000 0.000000 0.000000 276482.421789 0.000000 0.000000 0.000000 0.000000 0.000000 18564.789976 16314.588833 27485.651713 119364.494678 51887.823482 0.000000 0.000000 0.000000 4303.391263 0.000000 0.000000 0.000000 0.000000 0.000000 0.000000 0.000000 23307.428382 366629.680314 0.000000 0.000000 1240.111913 0.000000 0.000000 0.000000 0.000000 0.000000 0.000000 0.000000 0.000000 0.000000 146691.026582 0.000000 0.000000 0.000000 0.000000 0.000000 40156.892285 43897.835188 0.000000 0.000000 0.000000 0.000000 0.000000 0.000000 0.000000 0.000000 28356.174703 42844.802539 0.000000 0.000000 102936.212360 355510.007400 0.000000 0.000000 0.000000 0.000000 0.000000 0.000000 285746.882851 57050.807899 0.000000 6085.530182 0.000000 0.000000 0.000000 0.000000 0.000000 0.000000 0.000000 0.000000 0.000000 79709.669347 0.000000 0.000000 0.000000 0.000000 0.000000 0.000000 0.000000 0.000000 0.000000 133121.506445 0.000000 231798.664446 10424.593875 0.000000 0.000000 0.000000 0.000000 0.000000 0.000000 0.000000 18181.976964 56589.128197 0.000000 69300.819855 0.000000 1441.028898 0.000000 0.000000 0.000000 0.000000 0.000000 10500.028296 0.000000 0.000000 0.000000 53579.371356 63668.878679 0.000000 0.000000 17747.676610 106589.742913 0.000000 0.000000 0.000000 0.000000 0.000000 0.000000 0.000000 0.000000 0.000000 0.000000 0.000000 0.000000 0.000000 0.000000 16802.782027 41382.930432 4340.631958 0.000000 0.000000 0.000000 0.000000 0.000000 0.000000 0.000000 0.000000 5945.289198 44592.754606 0.000000 0.000000 0.000000 0.000000 0.000000 1044.041108 862.446624 0.000000 0.000000 0.000000 0.000000 0.000000 19260.147576 48424.406313 0.000000 0.000000 0.000000 0.000000 0.000000 13355.888588 38317.075529 0.000000 0.000000 0.000000 0.000000 0.000000 1569.631908 11553.799791 0.000000 0.000000 0.000000 0.000000 0.000000 18986.033563 65313.304517 0.000000 0.000000 0.000000 0.000000 0.000000 43891.695091 118873.415531 0.000000 0.000000 0.000000 0.000000 0.000000 21848.027150 79656.744958 0.000000 0.000000 0.000000 0.000000 0.000000 7215.729618 11771.648805 0.000000 0.000000 0.000000 0.000000 0.000000 5943.047393 12676.524330 0.000000 0.000000 0.000000 0.000000 0.000000 23240.259393 69349.004668 0.000000 0.000000 0.000000 0.000000 0.000000 16851.112487 45181.162248 0.000000 0.000000 0.000000 0.000000 0.000000 11842.683968 95273.271681 0.000000 0.000000 0.000000 0.000000 0.000000 8303.402273 65840.080064 0.000000 0.000000 0.000000 0.000000 0.000000 20851.047836 94870.342803 0.000000 0.000000 0.000000 0.000000 0.000000 45770.137004 168049.791784 0.000000 0.000000 0.000000 0.000000 0.000000 32340.777466 217538.247499 0.000000 0.000000 0.000000 0.000000 0.000000 24017.391583 127601.573088 0.000000 0.000000 0.000000 0.000000 0.000000 10421.084433 0.000000 0.000000 0.000000 0.000000 0.000000 0.000000 34829.725088 39729.571457 0.000000 0.000000 0.000000 0.000000 0.000000 41639.804774 62345.916040 0.000000 0.000000 0.000000 0.000000 0.000000 41106.642366 51518.638623 0.000000 0.000000 0.000000 0.000000 0.000000 25562.062256 27139.091603 0.000000 0.000000 0.000000 0.000000 0.000000 4284.798352 0.000000 0.000000 0.000000 0.000000 0.000000 0.000000 0.000000 0.000000 0.000000 0.000000 0.000000 0.000000 0.000000 1760.552075 0.000000 0.000000 0.000000 0.000000 0.000000 0.000000 14076.527697 55395.313445 0.000000 0.000000 0.000000 0.000000 0.000000 10538.295168 56957.801837 0.000000 0.000000 0.000000 0.000000 0.000000 29583.277838 47593.517682 0.000000 0.000000 0.000000 0.000000 0.000000 19418.604737 0.000000 0.000000 0.000000 0.000000 0.000000 0.000000 0.000000 0.000000 0.000000 0.000000 0.000000 0.000000 0.000000 5110.506961 0.000000 0.000000 0.000000 0.000000 0.000000 0.000000 9434.161050 21949.658579 0.000000 0.000000 0.000000 0.000000 0.000000 22042.450545 99676.593995 0.000000 0.000000 0.000000 0.000000 0.000000 12129.733581 38113.086936 0.000000 0.000000 0.000000 0.000000 0.000000 304.091563 0.000000 0.000000 0.000000 0.000000 0.000000 0.000000 0.000000 0.000000 0.000000 0.000000 0.000000 0.000000 0.000000 61.428726 0.000000 0.000000 0.000000 0.000000 0.000000 0.000000 12614.777247 42638.175556 0.000000 0.000000 0.000000 0.000000 0.000000 9808.844747 54309.754120 0.000000 0.000000 0.000000 0.000000 0.000000 17087.074656 23428.494499 0.000000 0.000000 0.000000 0.000000 0.000000 50829.995469 152140.794561 0.000000 0.000000 0.000000 0.000000 0.000000 32222.658237 263542.724596 0.000000 0.000000 0.000000 0.000000 0.000000 35077.510217 295174.972014 0.000000 0.000000 0.000000 0.000000 0.000000 54653.795815 145274.551634 0.000000 0.000000 0.000000 0.000000 0.000000 17928.917274 0.000000 0.000000 0.000000 0.000000 0.000000 0.000000 0.000000 0.000000 0.000000 0.000000 0.000000 0.000000 0.000000 3246.618077 0.000000 0.000000 0.000000 0.000000 0.000000 0.000000 30526.667318 150148.054041 0.000000 0.000000 0.000000 0.000000 0.000000 22878.151016 89589.439070 0.000000 0.000000 0.000000 0.000000 0.000000 48783.201673 124417.117582 0.000000 0.000000 0.000000 0.000000 0.000000 71366.648886 332492.876691 0.000000 0.000000 0.000000 0.000000 0.000000 28072.006997 281440.603301 0.000000 0.000000 0.000000 0.000000 0.000000 5912.643131 84658.504712 0.000000 0.000000 0.000000 0.000000 0.000000 0.000000 0.000000 0.000000 0.000000 0.000000 0.000000 0.000000 0.000000 0.000000 0.000000 0.000000 0.000000 0.000000 0.000000 0.000000 0.000000 0.000000 0.000000 0.000000 0.000000 0.000000 0.000000 0.000000 0.000000 0.000000 0.000000 0.000000 0.000000 22486.306056 103442.309600 0.000000 0.000000 0.000000 0.000000 0.000000 33984.463284 170039.736154 0.000000 0.000000 0.000000 0.000000 0.000000 8466.949625 0.000000 0.000000 0.000000 0.000000 0.000000 0.000000 27725.344180 8976.987471 0.000000 0.000000 0.000000 0.000000 0.000000 22077.242864 21027.615901 0.000000 0.000000 0.000000 0.000000 0.000000 0.000000 0.000000 0.000000 0.000000 0.000000 0.000000 0.000000 12461.400430 0.000000 0.000000 0.000000 0.000000 0.000000 0.000000 25419.272767 56969.750865 0.000000 0.000000 0.000000 0.000000 0.000000 4212.618519 0.000000 0.000000 0.000000 0.000000 0.000000 0.000000 0.000000 0.000000 0.000000 0.000000 0.000000 0.000000 0.000000 17346.955056 47320.346247 0.000000 0.000000 0.000000 0.000000 0.000000 59168.772556 300363.159471 0.000000 0.000000 0.000000 0.000000 0.000000 31079.461086 126528.476778 0.000000 0.000000 0.000000 0.000000 0.000000 0.000000 0.000000 0.000000 0.000000 0.000000 0.000000 0.000000 9727.427040 45306.215954 0.000000 0.000000 0.000000 0.000000 0.000000 18936.359869 189038.931275 0.000000 0.000000 0.000000 0.000000 0.000000 17504.587246 5877.188525 0.000000 0.000000 0.000000 0.000000 0.000000 52838.788889 56004.591888 0.000000 0.000000 0.000000 0.000000 0.000000 29895.853111 184241.441974 0.000000 0.000000 0.000000 0.000000 0.000000 17747.005442 196889.464834 0.000000 0.000000 0.000000 0.000000 0.000000 44317.042354 128638.331688 0.000000 0.000000 0.000000 0.000000 0.000000 45906.104020 66265.874809 0.000000 0.000000 0.000000 0.000000 0.000000 7655.592750 17922.375678 0.000000 0.000000 0.000000 0.000000 0.000000 267.915256 4168.901798 22468.607747 0.000000 0.000000 0.000000 0.000000 0.000000 0.000000 0.000000 0.000000 6627.159449 16595.281356 0.000000 0.000000 2019.518132 0.000000 0.000000 0.000000 0.000000 0.000000 0.000000 0.000000 0.000000 0.000000 0.000000 0.000000 0.000000 0.000000 0.000000 0.000000 0.000000 0.000000 0.000000 0.000000 0.000000 0.000000 0.000000 0.000000 0.000000 0.000000 0.000000 0.000000 0.000000 0.000000 0.000000 0.000000 0.000000 0.000000 0.000000 0.000000 0.000000 0.000000 0.000000 0.000000 0.000000 0.000000 0.000000 0.000000 0.000000 0.000000 0.000000 0.000000 0.000000 0.000000 0.000000 0.000000 0.000000 0.000000 0.000000 0.000000 0.000000 0.000000 0.000000 0.000000 0.000000 0.000000 0.000000 0.000000 0.000000 0.000000 0.000000 0.000000 0.000000 0.000000 0.000000 0.000000 0.000000 0.000000 0.000000 0.000000 0.000000 0.000000 0.000000 0.000000 0.000000 0.000000 0.000000 0.000000 0.000000 0.000000 0.000000 0.000000 0.000000 0.000000 0.000000 0.000000 0.000000 0.000000 0.000000 0.000000 0.000000 0.000000 0.000000 0.000000 0.000000 0.000000 0.000000 0.000000 0.000000 0.000000 0.000000 0.000000 0.000000 0.000000 0.000000 0.000000 0.000000 0.000000 0.000000 0.000000 0.000000 0.000000 0.000000 0.000000 0.000000 0.000000 0.000000 0.000000 0.000000 0.000000 0.000000 0.000000 0.000000 0.000000 0.000000 0.000000 0.000000 0.000000 0.000000 0.000000 0.000000 0.000000 0.000000 0.000000 0.000000 0.000000 0.000000 0.000000 0.000000 0.000000 0.000000 0.000000 0.000000 0.000000 0.000000 0.000000 0.000000 0.000000
</DataArray>
<DataArray type="Float64" Name="Velocity" NumberOfComponents="3" format="ascii">