<VTKFile type="PolyData">
<PolyData>
<Piece NumberOfPoints="1840" NumberOfVerts="1840" NumberOfLines="0" NumberOfStrips="0" NumberOfPolys="0">
<PointData>
<DataArray type="Float64" Name="Pressure" format="ascii">
 0.000000 0.000000 0.000000 0.000000 0.000000 0.000000 0.000000 0.000000 0.000000 0.000000 0.000000 0.000000 0.000000 0.000000 0.000000 0.000000 0.000000 0.000000 0.000000 0.000000 0.000000 0.000000 0.000000 0.000000 0.000000 0.000000 0.000000 0.000000 0.000000 0.000000 0.000000 0.000000 0.000000 0.000000 0.000000 0.000000 0.000000 0.000000 0.000000 0.000000 0.000000 0.000000 0.000000 0.000000 0.000000 0.000000 0.000000 0.000000 0.000000 0.000000 0.000000 0.000000 0.000000 0.000000 0.000000 0.000000 0.000000 0.000000 0.000000 0.000000 0.000000 0.000000 0.000000 0.000000 0.000000 0.000000 0.000000 0.000000 0.000000 0.000000 0.000000 0.000000 0.000000 0.000000 0.000000 0.000000 0.000000 0.000000 0.000000 0.000000 0.000000 0.000000 0.000000 0.000000 0.000000 0.000000 0.000000 0.000000 0.000000 0.000000 0.000000 0.000000 0.000000 0.000000 0.000000 0.000000 0.000000 0.000000 0.000000 0.000000 0.000000 0.000000 0.000000 0.000000 0.000000 0.000000 0.000000 0.000000 0.000000 0.000000 0.000000 0.000000 0.000000 0.000000 0.000000 0.000000 0.000000 807.366336 7402.936589 7029.033333 0.000000 0.000000 0.000000 0.000000 0.000000 0.000000 0.000000 0.000000 0.000000 0.000000 0.000000 0.000000 0.000000 0.000000 0.000000 0.000000 0.000000 0.000000 0.000000 0.000000 0.000000 0.000000 0.000000 0.000000 0.000000 0.000000 0.000000 0.000000 0.000000 0.000000 0.000000 0.000000 0.000000 0.000000 0.000000 0.000000 0.000000 0.000000 0.000000 0.000000 0.000000 0.000000 0.000000 0.000000 0.000000 0.000000 0.000000 0.000000 0.000000 0.000000 0.000000 0.000000 0.000000 3252.703093 12725.748604 30249.980645 35801.628232 0.000000 0.000000 0.000000 0.000000 0.000000 0.000000 0.000000 0.000000 0.000000 0.000000 0.000000 0.000000 0.000000 0.000000 0.000000 0.000000 0.000000 0.000000 0.000000 0.000000 0.000000 0.000000 0.000000 0.000000 0.000000 0.000000 0.000000 0.000000 0.000000 0.000000 0.000000 0.000000 0.000000 0.000000 0.000000 0.000000 0.000000 0.000000 0.000000 0.000000 0.000000 0.000000 0.000000 0.000000 0.000000 0.000000 0.000000 0.000000 0.000000 0.000000 0.000000 0.000000 0.000000 26915.280247 68935.671566 0.000000 0.000000 0.000000 0.000000 0.000000 0.000000 34239.324266 0.000000 47997.874920 140812.717951 0.000000 0.000000 0.000000 9617.143551 12849.560062 39924.798878 776.065283 0.000000 0.000000 47294.733361 0.000000 0.000000 0.000000 0.000000 0.000000 0.000000 26036.452497 0.000000 30829.312467 0.000000 0.000000 0.000000 9446.562704 0.000000 0.000000 0.000000 62086.010731 65712.478074 25627.002480 0.000000 0.000000 0.000000 0.000000 0.000000 28119.715684 56422.328367 0.000000 0.000000 0.000000 18004.510502 119522.289010 0.000000 0.000000 0.000000 65.233720 62055.667711 50090.252121 0.000000 0.000000 32345.766999 27038.499340 0.000000 0.000000 0.000000 0.000000 32524.658467 0.000000 0.000000 0.000000 312.306109 4160.116899 0.000000 0.000000 0.000000 0.000000 28027.932645 10524.700608 27488.590005 0.000000 79345.792023 33737.608335 0.000000 0.000000 0.000000 0.000000 0.000000 0.000000 0.000000 0.000000 0.000000 10516.050958 33209.431708 0.000000 24759.294694 0.000000 0.000000 0.000000 0.000000 20577.031287 0.000000 26941.705829 25785.556036 0.000000 6346.311089 0.000000 0.000000 72642.842866 41452.527455 0.000000 0.000000 0.000000 70899.784949 0.000000 0.000000 0.000000 0.000000 43777.577900 2323.060021 0.000000 63159.333125 0.000000 0.000000 0.000000 28563.415742 0.000000 81920.588034 12198.292716 0.000000 66736.460960 0.000000 45602.334616 0.000000 0.000000 0.000000 0.000000 0.000000 19639.772209 93911.810451 0.000000 0.000000 5735.753692 0.000000 0.000000 298398.076367 3474.299051 0.000000 0.000000 40900.137127 0.000000 0.000000 0.000000 0.000000 0.000000 0.000000 0.000000 0.000000 18746.994744 26260.563853 0.000000 0.000000 0.000000 7907.752662 0.000000 0.000000 113469.710223 74935.840460 54609.083183 83469.691198 0.000000 0.000000 0.000000 25514.173052 74414.792536 227764.847746 0.000000 0.000000 0.000000 0.000000 0.000000 0.000000 0.000000 0.000000 17636.327642 52770.723538 0.000000 0.000000 9786.191285 0.000000 172055.462480 0.000000 0.000000 0.000000 0.000000 39262.121692 0.000000 0.000000 0.000000 0.000000 0.000000 0.000000 0.000000 38035.512382 0.000000 102752.266321 103539.379652 0.000000 57956.338687 0.000000 40926.326625 0.000000 0.000000 57114.812952 195187.280297 5000.905018 0.000000 0.000000 0.000000 0.000000 4264.969956 0.000000 0.000000 30016.290731 0.000000 0.000000 0.000000 0.000000 0.000000 0.000000 8640.842319 44554.130793 68629.786075 0.000000 0.000000 359475.447267 5017.043033 15640.321485 35641.202267 0.000000 10398.424318 0.000000 12442.093359 0.000000 0.000000 0.000000 0.000000 44606.918871 0.000000 0.000000 114026.925930 21439.295018 0.000000 8691.745611 0.000000 0.000000 0.000000 0.000000 0.000000 0.000000 4313.439174 0.000000 0.000000 0.000000 0.000000 48483.638192 0.000000 0.000000 0.000000 41071.190948 3908.214958 0.000000 0.000000 0.000000 0.000000 0.000000 16804.577852 100410.987912 0.000000 110582.293990 12838.823972 0.000000 27850.061162 0.000000 0.000000 73525.034173 0.000000 166134.690815 0.000000 0.000000 0.000000 0.000000 0.000000 0.000000 0.000000 0.000000 315787.884382 0.000000 0.000000 0.000000 0.000000 0.000000 0.000000 0.000000 0.000000 190839.175859 0.000000 0.000000 0.000000 73790.808169 0.000000 0.000000 0.000000 0.000000 0.000000 0.000000 0.000000 0.000000 0.000000 0.000000 0.000000 0.000000 24508.441313 99841.555122 65025.300896 0.000000 0.000000 0.000000 0.000000 0.000000 165032.915568 180107.931182 0.000000 0.000000 73969.573833 123685.858703 0.000000 148122.019402 43805.460467 25179.829057 0.000000 61929.628057 293796.236767 0.000000 0.000000 43224.150906 0.000000 134687.645974 0.000000 78635.620395 0.000000 0.000000 227454.718336 26741.470816 0.000000 0.000000 0.000000 0.000000 0.000000 0.000000 0.000000 0.000000 0.000000 0.000000 0.000000 0.000000 0.000000 0.000000 32217.888342 88192.647850 123334.728792 0.000000 33252.727760 0.000000 0.000000 23384.037203 0.000000 0.000000 130202.657269 0.000000 0.000000 0.000000 0.000000 0.000000 0.000000 0.000000 59126.180040 0.000000 0.000000 376869.508496 0.000000 0.000000 0.000000 39662.196318 0.000000 0.000000 0.000000 0.000000 0.000000 0.000000 16009.799673 0.000000 0.000000 0.000000 0.000000 522732.062928 18099.339384 0.000000 0.000000 0.000000 0.000000 0.000000 0.000000 0.000000 17655.940333 26869.009318 0.000000 0.000000 486540.796429 0.000000 26232.179620 7826.875577 128913.501878 0.000000 0.000000 0.000000 0.000000 94528.241634 0.000000 56767.126556 0.000000 215250.836264 69564.375587 0.000000 81653.040601 38995.006805 254858.516269 0.000000 0.000000 508067.175985 36067.679233 0.000000 0.000000 0.000000 0.000000 0.000000 0.000000 58210.168546 0.000000 0.000000 0.000000 0.000000 0.000000 0.000000 0.000000 0.000000 0.000000 0.000000 0.000000 0.000000 32848.326820 70733.406028 0.000000 0.000000 0.000000 5674.148147 36709.432235 0.000000 160750.599026 0.000000 0.000000 0.000000 0.000000 0.000000 0.000000 34647.632146 0.000000 0.000000 0.000000 0.000000 0.000000 0.000000 67007.234220 0.000000 23877.099599 12924.476548 0.000000 60863.020093 185523.310602 0.000000 12833.824891 31061.612802 0.000000 0.000000 293426.927351 0.000000 0.000000 0.000000 0.000000 66758.361682 0.000000 0.000000 0.000000 0.000000 0.000000 0.000000 14935.337008 31690.296591 0.000000 0.000000 0.000000 0.000000 0.000000 0.000000 0.000000 0.000000 0.000000 0.000000 0.000000 0.000000 0.000000 0.000000 0.000000 0.000000 0.000000 0.000000 0.000000 31771.238626 0.000000 0.000000 47276.485367 0.000000 61379.537497 0.000000 0.000000 208970.890612 0.000000 0.000000 0.000000 0.000000 487417.069120 48575.290391 57542.389749 0.000000 0.000000 0.000000 910.321162 0.000000 0.000000 0.000000 0.000000 0.000000 16440.801782 16976.035589 0.000000 0.000000 0.000000 156390.153061 0.000000 0.000000 15109.134323 48584.887703 0.000000 0.000000 232737.340667 0.000000 0.000000 62946.326004 0.000000 0.000000 0.000000 0.000000 61683.448423 0.000000 0.000000 0.000000 0.000000 0.000000 53807.861131 0.000000 0.000000 0.000000 91157.535341 0.000000 0.000000 73699.789403 2318.907444 0.000000 226958.889699 0.000000 0.000000 12433.580528 0.000000 0.000000 0.000000 0.000000 0.000000 0.000000 36544.910596 56271.428472 0.000000 0.000000 0.000000 0.000000 0.000000 0.000000 149172.830918 29265.739830 23807.728241 0.000000 0.000000 0.000000 31689.272084 0.000000 0.000000 0.000000 0.000000 48117.382438 0.000000 0.000000 0.000000 0.000000 0.000000 0.000000 0.000000 0.000000 0.000000 484097.261334 44290.453863 0.000000 0.000000 0.000000 0.000000 0.000000 96284.514694 110273.815322 156174.491696 9460.205267 248398.580024 0.000000 0.000000 0.000000 0.000000 0.000000 7703.656343 0.000000 6744.389825 178719.882826 0.000000 0.000000 237849.067895 0.000000 0.000000 0.000000 0.000000 119617.401058 0.000000 0.000000 0.000000 160628.717781 0.000000 0.000000 0.000000 0.000000 0.000000 0.000000 69281.956872 0.000000 0.000000 0.000000 85592.029701 0.000000 0.000000 62165.432378 0.000000 0.000000 0.000000 0.000000 0.000000 58337.434623 25611.044321 96295.106266 0.000000 0.000000 0.000000 0.000000 0.000000 0.000000 0.000000 0.000000 3297.092299 0.000000 0.000000 0.000000 763388.833839 0.000000 0.000000 0.000000 0.000000 0.000000 0.000000 0.000000 0.000000 0.000000 0.000000 0.000000 0.000000 0.000000 0.000000 0.000000 1972.817625 19171.872785 0.000000 0.000000 0.000000 215404.232065 0.000000 0.000000 0.000000 0.000000 0.000000 0.000000 0.000000 0.000000 0.000000 0.000000 326711.711914 0.000000 207083.273031 0.000000 127040.149323 0.000000 0.000000 0.000000 0.000000 0.000000 30813.590679 43077.759945 45673.640547 90656.480395 42110.507704 0.000000 15567.858949 0.000000 0.000000 0.000000 0.000000 0.000000 0.000000 56192.410759 0.000000 0.000000 77448.376535 177046.657949 0.000000 0.000000 0.000000 0.000000 0.000000 0.000000 0.000000 0.000000 0.000000 0.000000 0.000000 26381.710606 46223.463099 0.000000 0.000000 4329.832658 164586.721014 0.000000 279377.300622 74535.382627 63807.141420 245657.736902 0.000000 0.000000 0.000000 0.000000 0.000000 0.000000 33527.199711 84396.176275 0.000000 0.000000 0.000000 96152.809169 0.000000 0.000000 0.000000 108875.932801 0.000000 0.000000 0.000000 0.000000 0.000000 0.000000 0.000000 0.000000 0.000000 73038.279029 0.000000 0.000000 58352.535503 0.000000 0.000000 0.000000 0.000000 0.000000 0.000000 0.000000 0.000000 0.000000 68412.153079 0.000000 0.000000 0.000000 0.000000 0.000000 61133.457529 0.000000 0.000000 0.000000 0.000000 0.000000 0.000000 0.000000 11089.569890 27127.910401 141344.812270 159554.426713 0.000000 0.000000 0.000000 0.000000 0.000000 0.000000 0.000000 0.000000 0.000000 0.000000 0.000000 228935.343767 74391.509536 0.000000 60186.015979 0.000000 136900.776586 69521.732674 0.000000 569552.723231 0.000000 0.000000 0.000000 0.000000 0.000000 0.000000 0.000000 0.000000 0.000000 0.000000 0.000000 94255.768162 27973.383904 46035.759751 0.000000 0.000000 0.000000 0.000000 0.000000 0.000000 0.000000 0.000000 0.000000 3562.276237 0.000000 0.000000 0.000000 0.000000 0.000000 12300.063778 13990.292680 0.000000 0.000000 0.000000 0.000000 0.000000 29194.959235 71022.063572 0.000000 0.000000 0.000000 0.000000 0.000000 11363.921461 76097.415094 0.000000 0.000000 0.000000 0.000000 0.000000 11252.367587 73390.783600 0.000000 0.000000 0.000000 0.000000 0.000000 38690.581623 91152.968386 0.000000 0.000000 0.000000 0.000000 0.000000 66781.579276 187100.751978 0.000000 0.000000 0.000000 0.000000 0.000000 18500.933792 4177.821078 0.000000 0.000000 0.000000 0.000000 0.000000 0.000000 0.000000 0.000000 0.000000 0.000000 0.000000 0.000000 6335.761903 7069.625885 0.000000 0.000000 0.000000 0.000000 0.000000 12220.637103 33705.264218 0.000000 0.000000 0.000000 0.000000 0.000000 3983.159077 9892.660399 0.000000 0.000000 0.000000 0.000000 0.000000 2027.782314 23986.261310 0.000000 0.000000 0.000000 0.000000 0.000000 5211.587044 22554.614208 0.000000 0.000000 0.000000 0.000000 0.000000 32944.442814 97304.400795 0.000000 0.000000 0.000000 0.000000 0.000000 30131.736466 66199.700925 0.000000 0.000000 0.000000 0.000000 0.000000 23393.238682 75305.827023 0.000000 0.000000 0.000000 0.000000 0.000000 31988.523698 101075.583076 0.000000 0.000000 0.000000 0.000000 0.000000 41041.976108 115279.738615 0.000000 0.000000 0.000000 0.000000 0.000000 70052.474848 193865.791534 0.000000 0.000000 0.000000 0.000000 0.000000 66156.934191 124067.500287 0.000000 0.000000 0.000000 0.000000 0.000000 45334.103584 94666.619779 0.000000 0.000000 0.000000 0.000000 0.000000 15426.887216 93168.100508 0.000000 0.000000 0.000000 0.000000 0.000000 1791.415635 0.000000 0.000000 0.000000 0.000000 0.000000 0.000000 8632.494021 0.000000 0.000000 0.000000 0.000000 0.000000 0.000000 29872.041535 15212.440814 0.000000 0.000000 0.000000 0.000000 0.000000 10427.936282 0.000000 0.000000 0.000000 0.000000 0.000000 0.000000 942.378168 0.000000 0.000000 0.000000 0.000000 0.000000 0.000000 0.000000 0.000000 0.000000 0.000000 0.000000 0.000000 0.000000 0.000000 0.000000 0.000000 0.000000 0.000000 0.000000 0.000000 0.000000 0.000000 0.000000 0.000000 0.000000 0.000000 0.000000 2715.176852 0.000000 0.000000 0.000000 0.000000 0.000000 0.000000 45061.950571 42185.914188 0.000000 0.000000 0.000000 0.000000 0.000000 52422.738121 186676.172941 0.000000 0.000000 0.000000 0.000000 0.000000 30627.606084 113733.391892 0.000000 0.000000 0.000000 0.000000 0.000000 101463.427658 314208.579947 0.000000 0.000000 0.000000 0.000000 0.000000 72417.765382 164819.302010 0.000000 0.000000 0.000000 0.000000 0.000000 4516.407057 0.000000 0.000000 0.000000 0.000000 0.000000 0.000000 0.000000 0.000000 0.000000 0.000000 0.000000 0.000000 0.000000 0.000000 0.000000 0.000000 0.000000 0.000000 0.000000 0.000000 0.000000 0.000000 0.000000 0.000000 0.000000 0.000000 0.000000 0.000000 83.314875 0.000000 0.000000 0.000000 0.000000 0.000000 0.000000 0.000000 0.000000 0.000000 0.000000 0.000000 0.000000 9926.096709 0.000000 0.000000 0.000000 0.000000 0.000000 0.000000 83771.019845 155836.629663 0.000000 0.000000 0.000000 0.000000 0.000000 93694.581975 229048.634863 0.000000 0.000000 0.000000 0.000000 0.000000 28638.284454 18651.607783 0.000000 0.000000 0.000000 0.000000 0.000000 42695.522313 68547.699410 0.000000 0.000000 0.000000 0.000000 0.000000 38769.912171 103503.701586 0.000000 0.000000 0.000000 0.000000 0.000000 41303.579640 219678.409714 0.000000 0.000000 0.000000 0.000000 0.000000 55197.991783 145012.015420 0.000000 0.000000 0.000000 0.000000 0.000000 42983.270225 21696.769997 0.000000 0.000000 0.000000 0.000000 0.000000 5691.207570 20346.518239 0.000000 0.000000 0.000000 0.000000 0.000000 2731.335206 90408.865913 0.000000 0.000000 0.000000 0.000000 0.000000 1304.525200 3978.908971 0.000000 0.000000 0.000000 0.000000 0.000000 5458.163352 0.000000 0.000000 0.000000 0.000000 0.000000 0.000000 25940.810365 0.000000 0.000000 0.000000 0.000000 0.000000 0.000000 58382.436516 37343.552340 0.000000 0.000000 0.000000 0.000000 0.000000 39822.383052 40646.164961 0.000000 0.000000 0.000000 0.000000 0.000000 53806.859067 41050.153667 0.000000 0.000000 0.000000 0.000000 0.000000 13956.974481 0.000000 0.000000 0.000000 0.000000 0.000000 0.000000 0.000000 0.000000 0.000000 0.000000 0.000000 0.000000 0.000000 807.705312 0.000000 0.000000 0.000000 0.000000 0.000000 0.000000 21119.873537 115508.306711 0.000000 0.000000 0.000000 0.000000 0.000000 39437.506001 320422.369937 0.000000 0.000000 0.000000 0.000000 0.000000 23767.612536 99449.440079 0.000000 0.000000 0.000000 0.000000 0.000000 14663.986783 32190.132027 0.000000 0.000000 0.000000 0.000000 0.000000 0.000000 0.000000 0.000000 0.000000 0.000000 0.000000 0.000000 0.000000 0.000000 0.000000 0.000000 0.000000 0.000000 0.000000 700.526947 0.000000 0.000000 0.000000 0.000000 0.000000 0.000000 0.000000 0.000000 0.000000 0.000000 0.000000 0.000000 0.000000 4173.557761 0.000000 0.000000 0.000000 0.000000 0.000000 0.000000 3553.563669 0.000000 0.000000 0.000000 0.000000 0.000000 0.000000 20137.474550 12996.319468 0.000000 0.000000 0.000000 0.000000 0.000000 46667.482630 278400.570837 0.000000 0.000000 0.000000 0.000000 0.000000 34200.565872 172613.408895 0.000000 0.000000 0.000000 0.000000 0.000000 25917.414119 60952.390897 0.000000 0.000000 0.000000 0.000000 0.000000 22449.231071 40152.769870 0.000000 0.000000 0.000000 0.000000 0.000000 57511.900020 222809.425293 0.000000 0.000000 0.000000 0.000000 0.000000 30127.997259 168725.942963 0.000000 0.000000 0.000000 0.000000 0.000000 0.000000 0.000000 0.000000 0.000000 0.000000 0.000000 0.000000 0.000000 0.000000 0.000000 23277.011841 4747.934180 0.000000 0.000000 0.000000 0.000000 0.000000 0.000000 509.112194 0.000000 11396.435857 24848.101569 0.000000 0.000000 0.000000 0.000000 11255.053188 0.000000 0.000000 0.000000 0.000000 0.000000 0.000000 0.000000 0.000000 0.000000 0.000000 0.000000 0.000000 0.000000 0.000000 0.000000 0.000000 0.000000 0.000000 0.000000 0.000000 0.000000 0.000000 0.000000 0.000000 0.000000 0.000000 0.000000 0.000000 0.000000 0.000000 0.000000 0.000000 0.000000 0.000000 0.000000 0.000000 0.000000 0.000000 0.000000 0.000000 0.000000 0.000000 0.000000 0.000000 0.000000 0.000000 0.000000 0.000000 0.000000 0.000000 0.000000 0.000000 0.000000 0.000000 0.000000 0.000000 0.000000 0.000000 0.000000 0.000000 0.000000 0.000000 0.000000 0.000000 0.000000 0.000000 0.000000 0.000000 0.000000 0.000000 0.000000 0.000000 0.000000 0.000000 0.000000 0.000000 0.000000 0.000000 0.000000 0.000000 0.000000 0.000000 0.000000 0.000000 0.000000 0.000000 0.000000 0.000000 0.000000 0.000000 0.000000 0.000000 0.000000 0.000000 0.000000 0.000000 0.000000 0.000000 0.000000 0.000000 0.000000 0.000000 0.000000 0.000000 0.000000 0.000000 0.000000 0.000000 0.000000 0.000000 0.000000 0.000000 0.000000 0.000000 0.000000 0.000000 0.000000 0.000000 0.000000 0.000000 0.000000 0.000000 0.000000 0.000000 0.000000 0.000000 0.000000 0.000000 0.000000 0.000000 0.000000 0.000000 0.000000 0.000000 0.000000 0.000000 0.000000 0.000000 0.000000 0.000000 0.000000 0.000000 0.000000 0.000000 0.000000 0.000000 0.000000 0.000000 0.000000
</DataArray>
<DataArray type="Float64" Name="Velocity" NumberOfComponents="3" format="ascii">