<VTKFile type="PolyData">
<PolyData>
<Piece NumberOfPoints="1840" NumberOfVerts="1840" NumberOfLines="0" NumberOfStrips="0" NumberOfPolys="0">
<PointData>
<DataArray type="Float64" Name="Pressure" format="ascii">
 0.000000 0.000000 0.000000 0.000000 0.000000 0.000000 0.000000 0.000000 0.000000 0.000000 0.000000 0.000000 0.000000 0.000000 0.000000 0.000000 0.000000 0.000000 0.000000 0.000000 0.000000 0.000000 0.000000 0.000000 0.000000 0.000000 0.000000 0.000000 0.000000 0.000000 0.000000 0.000000 0.000000 0.000000 0.000000 0.000000 0.000000 0.000000 0.000000 0.000000 0.000000 0.000000 0.000000 0.000000 0.000000 0.000000 0.000000 0.000000 0.000000 0.000000 0.000000 0.000000 0.000000 0.000000 0.000000 0.000000 0.000000 0.000000 0.000000 0.000000 0.000000 0.000000 0.000000 0.000000 0.000000 0.000000 0.000000 0.000000 0.000000 0.000000 0.000000 0.000000 0.000000 0.000000 0.000000 0.000000 0.000000 0.000000 0.000000 0.000000 0.000000 0.000000 0.000000 0.000000 0.000000 0.000000 0.000000 0.000000 0.000000 0.000000 0.000000 0.000000 0.000000 0.000000 0.000000 0.000000 0.000000 0.000000 0.000000 0.000000 0.000000 0.000000 0.000000 0.000000 0.000000 0.000000 0.000000 0.000000 0.000000 0.000000 0.000000 0.000000 0.000000 0.000000 0.000000 0.000000 24119.781899 106661.105983 135478.827135 135377.081782 140102.353998 106181.719997 115363.243797 120357.829296 118854.870985 131773.195515 91366.009440 89640.542147 89482.597116 112394.662814 85499.655855 50498.613685 28656.748582 20864.261201 15853.409158 11210.218067 6915.138849 3811.961946 2082.230714 2156.461977 874.140955 3426.816832 0.000000 0.000000 0.000000 0.000000 0.000000 0.000000 0.000000 0.000000 0.000000 0.000000 0.000000 0.000000 0.000000 0.000000 0.000000 0.000000 0.000000 0.000000 0.000000 0.000000 0.000000 0.000000 0.000000 0.000000 0.000000 0.000000 0.000000 0.000000 0.000000 0.000000 0.000000 80261.978268 459499.002301 577089.607045 590481.533838 566565.569056 400676.077254 424844.535936 484367.268586 491193.657329 504246.712052 343875.495412 386115.886341 368403.168657 446416.134124 360036.933224 256566.199407 254063.252286 278478.930801 201220.577941 128780.573910 109877.460841 71296.987382 19738.602304 0.000000 0.000000 10836.785357 0.000000 0.000000 0.000000 0.000000 0.000000 0.000000 0.000000 0.000000 0.000000 0.000000 0.000000 0.000000 0.000000 0.000000 0.000000 0.000000 0.000000 0.000000 0.000000 0.000000 0.000000 0.000000 0.000000 0.000000 0.000000 0.000000 0.000000 0.000000 0.000000 0.000000 0.000000 78137.786075 380844.662019 459499.002301 483931.852656 570798.552443 458026.972385 612816.529389 459231.915177 495622.289689 537112.869544 407730.018091 484344.030194 371426.184260 483957.300972 512695.724132 381476.124665 354772.468440 426730.450423 388897.621932 387367.732967 387367.883161 337850.073050 282302.514209 398956.764728 291547.865417 415249.045496 241145.927172 261741.537935 234432.925688 403549.786459 398515.048237 316047.267853 204751.921589 139586.952058 197040.425560 230482.175886 130800.486937 0.000000 0.000000 0.000000 0.000000 0.000000 0.000000 0.000000 0.000000 0.000000 82988.272053 461489.055708 431169.671217 517218.762163 453960.441933 522083.238010 410495.768738 510376.169111 420791.360290 537199.272564 409776.629013 339107.454018 428126.720006 380191.895684 480674.889188 371240.347792 414066.686025 343011.955938 353520.937260 273580.626929 371344.258688 412427.344215 407243.984472 306411.023370 254720.860740 331338.200921 387347.337848 329265.567937 231251.181519 215216.697209 261832.224727 323343.405643 275767.350104 120249.133600 23229.980193 57401.264177 144931.449335 137059.569620 0.000000 12829.505364 7051.122651 0.000000 0.000000 0.000000 0.000000 0.000000 85112.071598 419021.677997 401171.795348 471608.202023 446437.507495 441113.733183 409929.853011 515856.350733 424794.546751 393324.323812 429063.009877 367172.578861 413260.466245 408398.492104 371078.395220 345453.208188 422242.741041 430840.776463 356886.235517 286676.990564 352783.823144 461466.531604 490966.599278 351149.657234 220140.208271 240308.142762 325407.494178 402664.235399 283973.472137 141773.243322 139081.799955 270564.593979 344063.365256 266226.368559 125626.435938 62835.771184 115810.176148 149119.985200 0.000000 34323.018631 35661.482789 0.000000 0.000000 0.000000 0.000000 0.000000 91199.232178 430808.205703 481363.177094 342813.655158 401332.781327 442241.808166 496632.503265 515780.801566 437767.817346 448112.959725 477847.183959 546916.737863 545887.403404 431979.620066 383759.752722 432144.170559 490682.279761 513551.552263 392545.605672 262741.955689 269928.231203 367714.968954 440730.733078 378637.418086 261282.417831 196481.018174 263231.142038 379575.238924 389896.105517 292574.710454 215469.365531 197846.465598 192096.617305 170099.616719 117934.220679 94219.374467 126830.941254 118941.985241 0.000000 18390.725180 16192.459028 0.000000 0.000000 0.000000 0.000000 0.000000 93338.971028 479294.970119 399709.061645 464232.613623 515322.872856 389996.916715 373347.076148 426683.711644 411616.753160 373911.073568 431511.632713 446517.083874 516113.798400 483355.368532 384574.297797 292622.195218 307403.562443 357174.144585 400846.028321 369763.743258 326593.705987 300724.963315 281230.257496 309245.858518 337279.716921 344572.672348 337767.830088 281715.933820 197792.238364 165543.935932 214892.520497 293598.493160 295120.044644 185229.173615 73343.876025 58809.631447 128355.948459 135582.760194 0.000000 31088.770655 27681.039088 0.000000 0.000000 0.000000 0.000000 0.000000 70935.925679 358342.572084 473405.931543 472612.972538 528934.999681 448027.600832 398283.509164 419052.641687 504133.497834 521902.003423 478792.552409 354856.296649 321429.628114 360395.337358 422104.296001 459412.531191 427189.617646 345052.983927 242627.875723 229679.901287 367732.179717 481410.881087 464370.684873 302954.503418 191188.082625 231461.921254 343945.559441 393732.429887 318834.969699 199354.613191 164293.129834 202353.728092 240883.331526 194463.266313 104413.670817 76394.150672 118006.748346 112173.552842 0.000000 24430.814478 19786.052060 0.000000 0.000000 0.000000 0.000000 0.000000 82012.458866 416659.408800 396950.465910 506273.603539 463097.662653 528155.113930 461435.661687 421815.348189 339752.544262 386049.550408 470300.696921 487087.629327 444878.296756 360463.209867 280517.077415 288370.910176 365193.066331 421051.237234 395980.811517 315606.747548 263715.117320 308461.052788 365510.964179 349086.171608 292427.617793 274485.752448 275811.589046 261769.565507 232630.093578 206896.586977 226185.339696 257819.947385 237753.199004 155164.694367 78659.798984 75205.925012 129925.555434 117968.388353 0.000000 26927.476550 20069.004822 0.000000 0.000000 0.000000 0.000000 0.000000 82960.076988 457082.645240 398417.476191 310727.060748 421138.497641 407989.877151 409685.795385 404808.261091 417888.970011 433942.602402 390000.563635 353294.505173 352518.231505 389985.588721 426708.911169 407995.005992 331180.955295 267086.468068 278129.338567 321146.733399 380066.036573 392549.821233 338829.348975 246405.677844 226961.132405 294548.014777 352491.235420 321578.024872 231710.958683 174850.759957 193315.898112 239073.227706 236786.149836 161212.858613 85839.715760 82768.382763 125801.873669 105072.220102 0.000000 27795.516319 18487.333284 0.000000 0.000000 0.000000 0.000000 0.000000 84046.176097 493755.038673 583568.078056 424909.042946 447236.450434 297516.069475 391376.982507 342614.213883 373267.687681 434655.453905 468267.767364 399721.514970 321419.751184 268569.346550 294214.339284 361383.232754 383588.768864 358097.681298 319757.844961 304442.223600 311441.175673 340045.008845 341360.241490 292819.565717 252017.966105 263080.609697 277302.293973 253978.889348 210330.190211 197932.511936 227965.154105 246759.226548 209867.639483 132661.917307 81372.049745 94548.143006 133218.795249 100095.473070 0.000000 30356.494186 17805.333711 0.000000 0.000000 0.000000 0.000000 0.000000 81531.527954 425096.874522 398233.148337 278728.326112 309325.675402 363700.946677 310550.342515 377394.565844 371142.074510 331020.224064 278841.852835 282645.783230 303184.114932 363126.480562 378409.423662 353239.678358 312941.592819 273734.452429 286249.998426 337213.179592 348252.719744 304362.656160 251350.411528 228702.389376 239241.483737 288002.871821 306680.864536 255451.044031 188753.397391 186851.085122 228552.529786 243686.759881 196473.083739 122331.895906 86201.050579 104952.929931 130863.291140 88147.175104 0.000000 33437.358216 16850.496234 0.000000 0.000000 0.000000 0.000000 0.000000 65364.301589 350051.522418 330208.870121 334504.521604 338089.009577 278412.610711 297260.214221 321406.141306 235651.494245 300409.201853 313807.144761 346219.037977 342946.316663 286231.549710 263261.787290 264112.109603 277546.574275 286904.607283 272735.596009 264962.026394 269209.517297 265885.343448 255746.669964 259690.378336 260637.689949 251400.022845 241455.170996 212791.209322 187371.132719 202236.097710 233580.499358 222507.580397 162753.814708 105792.829161 93789.863964 119529.294875 130496.849674 76643.636035 0.000000 37462.757280 15626.187441 0.000000 0.000000 0.000000 0.000000 0.000000 82326.806069 397290.513688 304447.033594 277002.986886 237204.078024 327850.353059 253144.175156 324021.891050 228416.031147 268878.687813 276998.596142 265867.326850 256289.122599 264064.123600 265847.771605 260378.714964 242350.011547 248333.035661 259589.258774 266142.679111 264204.310886 252689.705781 234238.421959 234996.277803 251277.370143 245368.299105 219425.458570 193380.727474 190966.448733 209257.876567 225722.383791 200684.782211 139575.566860 99389.274304 104960.379666 129025.574366 121849.248352 62172.320677 0.000000 42580.829458 13886.111328 0.000000 0.000000 0.000000 0.000000 0.000000 88790.624647 377236.473632 263031.615279 269644.254327 232195.947600 240810.346582 240901.127213 244083.920064 204902.757263 264668.461119 291127.886780 252069.875924 246441.320292 271275.824592 265146.331330 252883.130761 249164.222082 253324.711822 249433.310520 240523.123516 231908.810270 230928.234970 232765.397823 226742.553990 217453.631281 204538.320598 185227.255356 177448.303449 191542.391127 200285.819017 189322.534002 154628.606878 110160.551647 96575.847630 118255.754888 134705.527790 108766.566645 47495.553759 0.000000 48599.265414 11117.603839 0.000000 0.000000 0.000000 0.000000 0.000000 111937.461918 476259.296773 211209.759990 169869.370981 168175.379575 189531.717294 189207.331696 184470.797063 179455.507739 178618.384787 212644.829629 226462.397137 242107.731801 250169.699699 227290.301750 203545.987331 200678.385789 195037.654432 201920.052996 216979.591568 217432.408698 202202.121978 197420.634550 201012.833462 201313.254122 189549.523337 178678.590022 185466.197093 198199.703281 194429.346579 167507.549205 130963.105638 103427.942429 108192.963617 130559.714394 128702.279173 88231.420679 33882.712117 0.000000 54752.138971 6556.108863 0.000000 0.000000 0.000000 0.000000 0.000000 102607.402440 566927.527887 148725.293332 81200.494221 103168.064798 153381.526505 90979.133055 140624.144501 138980.630277 100234.470656 165119.034113 163540.649056 181154.626825 159339.332142 152743.002396 156464.857351 161711.310352 173530.892902 184542.904047 183830.695212 191710.968206 195338.000359 189896.507095 181469.558426 175405.138363 165482.810251 158287.403025 156421.845329 150134.281511 127978.950631 100857.877836 85811.444169 85224.831656 102741.451595 117840.017329 101267.441029 60135.725010 22061.502073 0.000000 60353.759418 0.000000 0.000000 0.000000 0.000000 0.000000 0.000000 63444.775585 353665.910701 94440.345006 65918.541819 71147.196259 81336.192804 38737.885727 56132.902384 77769.976511 84090.967587 92487.147381 107672.014723 105481.140152 119253.157872 129051.533958 135488.910949 125044.827816 129560.503918 128089.508894 123876.939519 137822.738443 141404.972175 154661.004945 146964.562439 137887.091522 136395.114628 139154.529560 145637.200401 144976.792153 126180.502892 108810.120684 109092.268318 119541.902119 128910.483012 119938.192408 84635.483991 45033.767651 19841.656474 8684.909923 65592.373357 0.000000 0.000000 0.000000 0.000000 0.000000 0.000000 89798.002309 360896.673809 71582.353783 85425.764377 873.508701 62607.431860 64227.078677 29608.038276 99966.387964 73515.307563 45238.670387 65795.727199 63747.936706 86272.497895 82422.451029 47122.178243 40730.602149 61113.224738 82607.421295 95487.493524 88095.793997 80515.301212 85268.505360 103570.896796 122302.470160 124881.028372 120677.932405 102509.309678 81506.015451 69442.098896 59956.453982 57997.376715 58150.877327 53936.550780 41212.276069 21092.959589 7638.202731 7288.690305 18074.222338 64256.856836 0.000000 0.000000 0.000000 0.000000 0.000000 0.000000 100487.770681 390013.558962 72440.425644 0.000000 15077.489479 16579.153928 24800.404516 22499.473047 87608.680278 35196.145194 18021.468208 62699.484960 16812.747318 60121.513897 29022.235259 44329.125216 52924.206504 50337.274316 62718.561027 66381.497760 69649.825633 77771.725929 75860.938498 68759.282954 69349.571296 81454.531907 94700.712073 103596.107021 92316.147481 81645.461739 78047.832345 81105.516632 86505.781903 85404.979754 75688.715278 63325.082825 56552.664090 56917.083945 59851.710659 64398.520292 0.000000 0.000000 0.000000 0.000000 0.000000 0.000000 59942.667309 287483.946374 0.000000 45024.185761 22494.869801 0.000000 5298.621456 11415.393300 0.000000 0.000000 0.000000 17455.241656 27777.346517 5948.251301 0.000000 29885.103434 45881.736603 18255.127902 0.000000 0.000000 0.000000 0.000000 0.000000 0.000000 0.000000 0.000000 0.000000 0.000000 0.000000 0.000000 0.000000 0.000000 0.000000 8938.988519 12615.687894 7252.592723 0.000000 0.000000 0.000000 0.000000 0.000000 0.000000 0.000000 0.000000 0.000000 0.000000 71245.359604 314980.880926 0.000000 0.000000 0.000000 0.000000 0.000000 57391.368509 297004.945699 0.000000 0.000000 0.000000 0.000000 0.000000 48884.074174 242151.457706 0.000000 0.000000 0.000000 0.000000 0.000000 69464.741275 302890.333477 0.000000 0.000000 0.000000 0.000000 0.000000 30985.886651 182850.312505 0.000000 0.000000 0.000000 0.000000 0.000000 58134.165699 236481.602884 0.000000 0.000000 0.000000 0.000000 0.000000 55529.192968 207499.969489 0.000000 0.000000 0.000000 0.000000 0.000000 25116.352652 117351.835915 0.000000 0.000000 0.000000 0.000000 0.000000 64478.668902 207320.642717 0.000000 0.000000 0.000000 0.000000 0.000000 45446.685019 132972.468064 0.000000 0.000000 0.000000 0.000000 0.000000 31812.408436 107472.833762 0.000000 0.000000 0.000000 0.000000 0.000000 45499.634699 126522.824246 0.000000 0.000000 0.000000 0.000000 0.000000 64080.391205 143284.358230 0.000000 0.000000 0.000000 0.000000 0.000000 26156.069992 71569.129894 0.000000 0.000000 0.000000 0.000000 0.000000 45740.458649 104566.915765 0.000000 0.000000 0.000000 0.000000 0.000000 33786.227290 59674.007620 0.000000 0.000000 0.000000 0.000000 0.000000 17898.402735 60985.278083 0.000000 0.000000 0.000000 0.000000 0.000000 14784.699050 48521.613540 0.000000 0.000000 0.000000 0.000000 0.000000 29646.149259 77687.941731 0.000000 0.000000 0.000000 0.000000 0.000000 35902.293078 54431.441543 0.000000 0.000000 0.000000 0.000000 0.000000 3053.602677 0.000000 0.000000 0.000000 0.000000 0.000000 0.000000 5126.542104 5409.396108 0.000000 0.000000 0.000000 0.000000 0.000000 10908.036462 0.000000 0.000000 0.000000 0.000000 0.000000 0.000000 0.000000 0.000000 0.000000 0.000000 0.000000 0.000000 0.000000 0.000000 0.000000 0.000000 0.000000 0.000000 0.000000 0.000000 0.000000 0.000000 0.000000 0.000000 0.000000 0.000000 0.000000 0.000000 0.000000 0.000000 0.000000 0.000000 0.000000 0.000000 0.000000 0.000000 0.000000 0.000000 0.000000 0.000000 0.000000 0.000000 0.000000 0.000000 0.000000 0.000000 0.000000 0.000000 0.000000 0.000000 0.000000 0.000000 0.000000 0.000000 0.000000 0.000000 0.000000 0.000000 0.000000 0.000000 0.000000 0.000000 0.000000 0.000000 0.000000 0.000000 0.000000 0.000000 0.000000 0.000000 0.000000 0.000000 0.000000 0.000000 0.000000 0.000000 0.000000 0.000000 0.000000 0.000000 0.000000 0.000000 0.000000 0.000000 0.000000 0.000000 0.000000 0.000000 0.000000 0.000000 0.000000 0.000000 0.000000 0.000000 0.000000 0.000000 0.000000 0.000000 0.000000 0.000000 0.000000 0.000000 0.000000 0.000000 0.000000 0.000000 0.000000 0.000000 0.000000 0.000000 0.000000 0.000000 0.000000 0.000000 0.000000 0.000000 0.000000 0.000000 0.000000 0.000000 0.000000 0.000000 0.000000 0.000000 0.000000 0.000000 0.000000 0.000000 0.000000 0.000000 0.000000 0.000000 0.000000 0.000000 0.000000 0.000000 0.000000 0.000000 0.000000 0.000000 0.000000 0.000000 0.000000 0.000000 0.000000 0.000000 0.000000 0.000000 0.000000 0.000000 0.000000 0.000000 0.000000 0.000000 0.000000 0.000000 0.000000 0.000000 0.000000 0.000000 0.000000 0.000000 0.000000 0.000000 0.000000 0.000000 0.000000 0.000000 0.000000 0.000000 0.000000 0.000000 0.000000 0.000000 0.000000 0.000000 0.000000 0.000000 0.000000 0.000000 0.000000 0.000000 0.000000 0.000000 0.000000 0.000000 0.000000 0.000000 0.000000 0.000000 0.000000 0.000000 0.000000 0.000000 0.000000 0.000000 0.000000 0.000000 0.000000 0.000000 0.000000 0.000000 0.000000 0.000000 0.000000 0.000000 0.000000 0.000000 0.000000 0.000000 0.000000 0.000000 0.000000 0.000000 0.000000 0.000000 0.000000 0.000000 0.000000 0.000000 0.000000 0.000000 0.000000 0.000000 0.000000 0.000000 0.000000 0.000000 0.000000 0.000000 0.000000 0.000000 0.000000 0.000000 0.000000 0.000000 0.000000 0.000000 0.000000 0.000000 0.000000 0.000000 0.000000 0.000000 0.000000 0.000000 0.000000 0.000000 0.000000 0.000000 0.000000 0.000000 0.000000 0.000000 0.000000 0.000000 0.000000 0.000000 0.000000 0.000000 0.000000 0.000000 0.000000 0.000000 0.000000 0.000000 0.000000 0.000000 0.000000 0.000000 0.000000 0.000000 0.000000 0.000000 0.000000 0.000000 0.000000 0.000000 0.000000 0.000000 0.000000 0.000000 0.000000 0.000000 0.000000 0.000000 0.000000 0.000000 0.000000 0.000000 0.000000 0.000000 0.000000 0.000000 0.000000 0.000000 0.000000 0.000000 0.000000 0.000000 0.000000 0.000000 0.000000 0.000000 0.000000 0.000000 0.000000 0.000000 0.000000 0.000000 0.000000 0.000000 0.000000 0.000000 0.000000 0.000000 0.000000 0.000000 0.000000 0.000000 0.000000 0.000000 0.000000 0.000000 0.000000 0.000000 0.000000 0.000000 0.000000 0.000000 0.000000 0.000000 0.000000 0.000000 0.000000 0.000000 0.000000 0.000000 0.000000 0.000000 0.000000 0.000000 0.000000 0.000000 0.000000 0.000000 0.000000 0.000000 0.000000 0.000000 0.000000 0.000000 0.000000 0.000000 0.000000 0.000000 0.000000 0.000000 0.000000 0.000000 0.000000 0.000000 0.000000 0.000000 0.000000 0.000000 0.000000 0.000000 0.000000 0.000000 0.000000 0.000000 0.000000 0.000000 0.000000 0.000000 0.000000 0.000000 0.000000 0.000000 0.000000 0.000000 0.000000 0.000000 0.000000 0.000000 0.000000 0.000000 0.000000 0.000000 0.000000 0.000000 0.000000 0.000000 0.000000 0.000000 0.000000 0.000000 0.000000 0.000000 0.000000 0.000000 0.000000 0.000000 0.000000 0.000000 0.000000 0.000000 0.000000 0.000000 0.000000 0.000000 0.000000 0.000000 0.000000 0.000000 0.000000 0.000000 0.000000 0.000000 0.000000 0.000000 0.000000 0.000000 0.000000 0.000000 0.000000 0.000000 0.000000 0.000000 0.000000 0.000000 0.000000 0.000000 0.000000 0.000000 0.000000 0.000000 0.000000 0.000000 0.000000 0.000000 0.000000 0.000000 0.000000 0.000000 0.000000 0.000000 0.000000 0.000000 0.000000 0.000000 0.000000 0.000000 0.000000 0.000000 0.000000 0.000000 0.000000 0.000000 0.000000 0.000000 0.000000 0.000000 0.000000 0.000000 0.000000 0.000000 0.000000 0.000000 0.000000 0.000000 0.000000 0.000000 0.000000 0.000000 0.000000 0.000000 0.000000 0.000000 0.000000 0.000000 0.000000 0.000000 0.000000 0.000000 0.000000 0.000000 0.000000 0.000000 0.000000 0.000000 0.000000 0.000000 0.000000 0.000000 0.000000 0.000000 0.000000 0.000000 0.000000 0.000000 0.000000 0.000000 0.000000 0.000000 0.000000 0.000000 0.000000 0.000000 0.000000 0.000000 0.000000 0.000000 0.000000 0.000000 0.000000 0.000000 0.000000 0.000000 0.000000 0.000000 0.000000 0.000000 0.000000 0.000000 0.000000 0.000000 0.000000 0.000000 0.000000 0.000000 0.000000 0.000000 0.000000 0.000000 0.000000 0.000000 0.000000 0.000000 0.000000 0.000000 0.000000 0.000000 0.000000 0.000000 0.000000 0.000000 0.000000 0.000000 0.000000 0.000000 0.000000 0.000000 0.000000 0.000000 0.000000 0.000000 0.000000 0.000000 0.000000 0.000000 0.000000 0.000000 0.000000 0.000000 0.000000 0.000000 0.000000 0.000000 0.000000 0.000000 0.000000 0.000000 0.000000 0.000000 0.000000 0.000000 0.000000 0.000000 0.000000
</DataArray>
<DataArray type="Float64" Name="Velocity" NumberOfComponents="3" format="ascii">