<VTKFile type="PolyData">
<PolyData>
<Piece NumberOfPoints="1840" NumberOfVerts="1840" NumberOfLines="0" NumberOfStrips="0" NumberOfPolys="0">
<PointData>
<DataArray type="Float64" Name="Pressure" format="ascii">
 0.000000 0.000000 0.000000 0.000000 0.000000 0.000000 0.000000 0.000000 0.000000 0.000000 0.000000 0.000000 0.000000 0.000000 0.000000 0.000000 0.000000 0.000000 0.000000 0.000000 0.000000 0.000000 0.000000 0.000000 0.000000 0.000000 0.000000 0.000000 0.000000 0.000000 0.000000 0.000000 0.000000 0.000000 0.000000 0.000000 0.000000 0.000000 0.000000 0.000000 0.000000 0.000000 0.000000 0.000000 0.000000 0.000000 0.000000 0.000000 0.000000 0.000000 0.000000 0.000000 0.000000 0.000000 0.000000 0.000000 0.000000 0.000000 0.000000 0.000000 0.000000 0.000000 0.000000 0.000000 0.000000 0.000000 0.000000 0.000000 0.000000 0.000000 0.000000 0.000000 0.000000 0.000000 0.000000 0.000000 0.000000 0.000000 0.000000 0.000000 0.000000 0.000000 0.000000 0.000000 0.000000 0.000000 0.000000 0.000000 0.000000 0.000000 0.000000 0.000000 0.000000 0.000000 0.000000 0.000000 0.000000 0.000000 0.000000 0.000000 0.000000 0.000000 0.000000 0.000000 0.000000 0.000000 0.000000 0.000000 0.000000 0.000000 0.000000 0.000000 0.000000 0.000000 0.000000 0.000000 3004.290952 32341.341037 43447.069102 5521.660439 0.000000 0.000000 0.000000 1017.393022 39103.983183 46710.912895 21545.403104 11838.451281 0.000000 0.000000 0.000000 0.000000 0.000000 0.000000 0.000000 0.000000 0.000000 0.000000 0.000000 0.000000 0.000000 0.000000 0.000000 0.000000 0.000000 0.000000 0.000000 0.000000 0.000000 0.000000 0.000000 0.000000 0.000000 0.000000 0.000000 0.000000 0.000000 0.000000 0.000000 0.000000 0.000000 0.000000 0.000000 0.000000 0.000000 0.000000 0.000000 0.000000 0.000000 0.000000 0.000000 0.000000 0.000000 15815.954409 170223.359774 174695.178250 0.000000 0.000000 0.000000 0.000000 0.000000 0.000000 13975.403435 3042.434031 0.000000 0.000000 0.000000 0.000000 0.000000 0.000000 0.000000 0.000000 0.000000 0.000000 0.000000 0.000000 0.000000 0.000000 0.000000 0.000000 0.000000 0.000000 0.000000 0.000000 0.000000 0.000000 0.000000 0.000000 0.000000 0.000000 0.000000 0.000000 0.000000 0.000000 0.000000 0.000000 0.000000 0.000000 0.000000 0.000000 0.000000 0.000000 0.000000 0.000000 0.000000 0.000000 0.000000 0.000000 0.000000 0.000000 32167.052107 179886.085055 0.000000 0.000000 0.000000 2034.461703 0.000000 0.000000 0.000000 63439.322566 0.000000 16211.786774 21763.199067 0.000000 0.000000 0.000000 53265.165616 29484.545668 0.000000 118692.868721 0.000000 0.000000 0.000000 109131.821755 0.000000 0.000000 0.000000 0.000000 111279.938135 0.000000 0.000000 0.000000 76109.973813 0.000000 0.000000 38305.201950 0.000000 42299.262517 0.000000 0.000000 0.000000 0.000000 0.000000 0.000000 0.000000 0.000000 42644.092354 123585.412726 26976.536095 0.000000 0.000000 91851.499687 0.000000 11029.767274 0.000000 0.000000 0.000000 0.000000 111270.194980 0.000000 0.000000 0.000000 0.000000 0.000000 0.000000 0.000000 0.000000 0.000000 0.000000 115326.859977 0.000000 0.000000 0.000000 0.000000 0.000000 32652.897514 0.000000 6205.902404 0.000000 0.000000 0.000000 0.000000 100051.088581 0.000000 0.000000 0.000000 87186.738839 0.000000 0.000000 0.000000 0.000000 0.000000 21529.140989 28459.879861 37850.376564 0.000000 0.000000 271223.092269 0.000000 0.000000 0.000000 115464.224158 0.000000 0.000000 0.000000 0.000000 96019.058498 85439.086294 100664.471115 0.000000 0.000000 147765.392413 141560.121577 210119.614078 29131.734180 0.000000 24540.826690 0.000000 0.000000 0.000000 266483.173456 259309.313016 0.000000 0.000000 0.000000 76698.061190 0.000000 0.000000 263421.227968 224269.644661 9473.264642 0.000000 0.000000 0.000000 0.000000 0.000000 0.000000 0.000000 16410.668964 34236.971125 0.000000 0.000000 0.000000 47351.713163 0.000000 0.000000 0.000000 0.000000 259808.403466 365136.871380 0.000000 0.000000 0.000000 0.000000 0.000000 27404.051983 0.000000 0.000000 48696.987474 0.000000 0.000000 0.000000 0.000000 0.000000 0.000000 170998.179327 0.000000 0.000000 90303.857655 0.000000 12877.075045 93228.221136 0.000000 0.000000 0.000000 282477.559095 0.000000 31776.148831 0.000000 0.000000 0.000000 0.000000 0.000000 0.000000 44629.357997 415734.833307 96520.456680 0.000000 111222.502458 0.000000 19731.875517 0.000000 0.000000 0.000000 0.000000 2442.372149 0.000000 0.000000 0.000000 290194.646838 184222.705186 0.000000 143810.602328 220689.051746 14634.788190 51644.001708 0.000000 0.000000 0.000000 100598.338517 250367.777294 0.000000 0.000000 0.000000 119456.051073 0.000000 35523.693238 35829.602706 0.000000 84570.433709 0.000000 0.000000 0.000000 0.000000 0.000000 0.000000 0.000000 0.000000 0.000000 0.000000 32548.337293 150043.374775 25963.802898 0.000000 0.000000 16696.380980 0.000000 0.000000 0.000000 0.000000 0.000000 14811.421396 0.000000 34470.309552 0.000000 98013.870591 0.000000 0.000000 56912.315647 0.000000 169127.102263 0.000000 0.000000 0.000000 0.000000 0.000000 164524.404603 0.000000 17085.075239 0.000000 0.000000 113190.417258 0.000000 8853.691579 167211.932856 0.000000 20123.480060 0.000000 8794.957778 0.000000 0.000000 0.000000 0.000000 0.000000 0.000000 0.000000 50550.346352 40480.669804 79113.690007 194564.465413 68436.511867 0.000000 0.000000 98931.394832 48313.746294 0.000000 136531.748122 0.000000 117381.618787 24390.244664 169239.317043 0.000000 0.000000 38459.329009 301555.711344 0.000000 145176.384788 0.000000 129325.324720 0.000000 193047.275994 0.000000 0.000000 0.000000 0.000000 113510.214470 0.000000 0.000000 0.000000 0.000000 0.000000 5312.180298 0.000000 0.000000 3477.848026 70815.366377 0.000000 0.000000 0.000000 0.000000 0.000000 0.000000 36582.541552 66461.653620 0.000000 0.000000 51400.425362 0.000000 0.000000 0.000000 94068.851294 0.000000 0.000000 0.000000 0.000000 168789.521596 46747.185622 121599.782590 0.000000 0.000000 0.000000 140987.390034 0.000000 0.000000 32081.309713 33443.624075 0.000000 0.000000 0.000000 100048.435674 0.000000 53129.874496 0.000000 16710.526928 33879.467363 373665.040655 0.000000 0.000000 0.000000 8833.587969 0.000000 0.000000 0.000000 0.000000 0.000000 0.000000 0.000000 0.000000 17746.222417 47325.259314 117.311775 0.000000 145384.535779 75958.034708 0.000000 45247.861284 0.000000 73833.931926 0.000000 0.000000 41533.244060 28701.952819 0.000000 0.000000 0.000000 144162.487717 0.000000 108681.230566 0.000000 0.000000 0.000000 0.000000 17941.746235 56752.023333 0.000000 200361.905067 192383.440334 0.000000 5938.837644 0.000000 0.000000 0.000000 0.000000 103373.235950 0.000000 0.000000 68497.931791 0.000000 0.000000 0.000000 0.000000 0.000000 0.000000 0.000000 16394.039543 19458.303522 56872.319539 0.000000 35105.865464 0.000000 0.000000 0.000000 0.000000 63680.461372 64797.870345 0.000000 0.000000 0.000000 2975.587024 34207.484833 0.000000 183707.341737 15339.072045 0.000000 180847.032552 96631.617765 68972.679652 0.000000 0.000000 80241.447002 0.000000 0.000000 0.000000 0.000000 0.000000 0.000000 8175.846865 0.000000 0.000000 15408.033878 0.000000 0.000000 51286.533404 0.000000 0.000000 0.000000 0.000000 0.000000 0.000000 0.000000 15821.834769 48485.686386 0.000000 0.000000 0.000000 4747.432119 0.000000 0.000000 0.000000 4842.483886 0.000000 0.000000 0.000000 0.000000 0.000000 0.000000 0.000000 0.000000 0.000000 134893.511956 0.000000 0.000000 0.000000 124590.877361 52571.006259 0.000000 0.000000 0.000000 132822.246274 36252.780670 205100.729437 0.000000 255871.092828 0.000000 200056.521947 0.000000 0.000000 0.000000 0.000000 0.000000 399212.960842 0.000000 0.000000 0.000000 0.000000 0.000000 5658.760350 51381.456668 0.000000 164478.215223 10532.597776 39839.234258 113333.690018 0.000000 0.000000 0.000000 0.000000 0.000000 8932.151176 0.000000 0.000000 147025.213727 74051.156210 0.000000 0.000000 0.000000 0.000000 0.000000 0.000000 3464.568177 0.000000 10616.082385 0.000000 0.000000 0.000000 244000.360918 309393.661984 70083.210072 0.000000 0.000000 5393.251332 0.000000 0.000000 11103.759635 66302.348624 0.000000 0.000000 0.000000 0.000000 0.000000 0.000000 0.000000 11297.605224 99989.142605 29230.956477 0.000000 26829.608038 0.000000 0.000000 0.000000 0.000000 184479.387659 60166.754556 0.000000 0.000000 0.000000 7146.231627 80964.980348 0.000000 0.000000 0.000000 0.000000 0.000000 0.000000 21881.738175 109513.831687 0.000000 0.000000 0.000000 0.000000 0.000000 3991.478741 0.000000 0.000000 12505.439515 0.000000 0.000000 0.000000 0.000000 84382.650860 0.000000 0.000000 26369.760721 0.000000 0.000000 0.000000 0.000000 0.000000 16482.593285 80788.113363 93530.663087 0.000000 20587.121796 0.000000 0.000000 5015.199039 36871.045273 0.000000 0.000000 9317.370387 317465.384537 0.000000 0.000000 0.000000 0.000000 0.000000 0.000000 0.000000 0.000000 0.000000 0.000000 0.000000 0.000000 0.000000 10225.729235 0.000000 0.000000 0.000000 0.000000 0.000000 0.000000 0.000000 0.000000 0.000000 0.000000 0.000000 31700.254099 0.000000 0.000000 0.000000 0.000000 0.000000 0.000000 0.000000 24391.053717 119515.578510 39249.456293 21639.561646 195326.907544 0.000000 52781.967060 0.000000 81443.640861 0.000000 55503.331705 0.000000 61864.515875 0.000000 0.000000 0.000000 0.000000 0.000000 0.000000 0.000000 269767.465063 10490.277170 508435.643227 114310.608664 0.000000 0.000000 73677.083888 39716.894108 0.000000 0.000000 0.000000 135583.788784 0.000000 0.000000 0.000000 0.000000 183783.348383 0.000000 0.000000 0.000000 0.000000 0.000000 0.000000 0.000000 0.000000 0.000000 23028.995599 60128.134497 0.000000 0.000000 328155.351968 0.000000 0.000000 0.000000 0.000000 0.000000 0.000000 110836.747606 0.000000 7583.951500 0.000000 0.000000 0.000000 0.000000 1386.352680 0.000000 12360.416983 0.000000 0.000000 0.000000 0.000000 0.000000 0.000000 0.000000 0.000000 0.000000 0.000000 441777.292139 0.000000 33913.034637 0.000000 151432.896574 0.000000 0.000000 0.000000 0.000000 14778.298000 0.000000 0.000000 0.000000 0.000000 0.000000 1063.771012 0.000000 0.000000 0.000000 90814.692867 234289.967627 0.000000 152195.632262 7114.646502 0.000000 0.000000 0.000000 0.000000 0.000000 0.000000 0.000000 0.000000 17640.510922 0.000000 0.000000 28025.418669 0.000000 0.000000 0.000000 0.000000 24273.715441 16580.472822 0.000000 44530.147645 0.000000 0.000000 0.000000 16347.626165 0.000000 0.000000 0.000000 0.000000 0.000000 25652.145311 0.000000 205041.390691 0.000000 0.000000 0.000000 0.000000 0.000000 2941.574586 0.000000 0.000000 0.000000 0.000000 0.000000 139697.416114 139697.416114 0.000000 47718.069652 0.000000 0.000000 0.000000 219381.526186 0.000000 27760.921056 0.000000 9098.550385 0.000000 60494.086441 0.000000 99075.003548 58426.863838 0.000000 0.000000 133659.745406 0.000000 0.000000 327919.325609 116047.591690 4480.166728 13279.025965 0.000000 0.000000 79709.900817 0.000000 0.000000 0.000000 88391.462562 0.000000 0.000000 0.000000 0.000000 0.000000 0.000000 0.000000 31102.650290 33721.801460 0.000000 109656.222959 14235.813130 0.000000 0.000000 47694.963164 219643.013982 0.000000 4969.718061 0.000000 16847.918054 36257.557218 163345.849801 0.000000 0.000000 0.000000 0.000000 0.000000 9589.343577 205838.140581 0.000000 0.000000 0.000000 47631.329087 195811.440010 6062.518431 0.000000 71260.009501 25694.526296 50338.128792 43954.155444 0.000000 0.000000 0.000000 402614.595330 0.000000 0.000000 0.000000 90042.333331 0.000000 0.000000 0.000000 0.000000 0.000000 18723.869847 0.000000 0.000000 0.000000 0.000000 0.000000 0.000000 0.000000 0.000000 0.000000 0.000000 0.000000 0.000000 0.000000 18705.776073 22437.768718 0.000000 0.000000 0.000000 0.000000 0.000000 69341.630179 199831.255815 0.000000 0.000000 0.000000 0.000000 0.000000 27366.527680 25252.091931 0.000000 0.000000 0.000000 0.000000 0.000000 13114.489961 42388.477909 0.000000 0.000000 0.000000 0.000000 0.000000 33951.510527 194788.822839 0.000000 0.000000 0.000000 0.000000 0.000000 38808.045856 184197.136043 0.000000 0.000000 0.000000 0.000000 0.000000 18905.208124 91484.495285 0.000000 0.000000 0.000000 0.000000 0.000000 2455.727825 56403.859260 0.000000 0.000000 0.000000 0.000000 0.000000 4411.091330 44921.125765 0.000000 0.000000 0.000000 0.000000 0.000000 7451.915203 4620.405093 0.000000 0.000000 0.000000 0.000000 0.000000 37033.787531 123758.562587 0.000000 0.000000 0.000000 0.000000 0.000000 56357.394692 164555.976855 0.000000 0.000000 0.000000 0.000000 0.000000 21225.376783 53949.490016 0.000000 0.000000 0.000000 0.000000 0.000000 21967.915861 136749.650511 0.000000 0.000000 0.000000 0.000000 0.000000 18014.545759 52765.809145 0.000000 0.000000 0.000000 0.000000 0.000000 45098.070871 137959.265780 0.000000 0.000000 0.000000 0.000000 0.000000 53431.600076 115793.221974 0.000000 0.000000 0.000000 0.000000 0.000000 63916.731355 94387.146252 0.000000 0.000000 0.000000 0.000000 0.000000 45940.742911 145283.741661 0.000000 0.000000 0.000000 0.000000 0.000000 24970.446831 60023.519700 0.000000 0.000000 0.000000 0.000000 0.000000 12189.280592 40966.819902 0.000000 0.000000 0.000000 0.000000 0.000000 30604.737951 271617.198063 0.000000 0.000000 0.000000 0.000000 0.000000 46229.548398 292169.779018 0.000000 0.000000 0.000000 0.000000 0.000000 41973.166300 293973.701209 0.000000 0.000000 0.000000 0.000000 0.000000 25025.402906 309207.711352 0.000000 0.000000 0.000000 0.000000 0.000000 8051.972052 101752.058863 0.000000 0.000000 0.000000 0.000000 0.000000 0.000000 0.000000 0.000000 0.000000 0.000000 0.000000 0.000000 2779.924495 54675.374649 0.000000 0.000000 0.000000 0.000000 0.000000 3277.526244 73048.163538 0.000000 0.000000 0.000000 0.000000 0.000000 5823.371008 29205.990061 0.000000 0.000000 0.000000 0.000000 0.000000 33753.336005 158935.351967 0.000000 0.000000 0.000000 0.000000 0.000000 19036.690806 25150.721945 0.000000 0.000000 0.000000 0.000000 0.000000 54306.683582 55577.404273 0.000000 0.000000 0.000000 0.000000 0.000000 129309.997474 334608.093105 0.000000 0.000000 0.000000 0.000000 0.000000 53068.643777 81982.249826 0.000000 0.000000 0.000000 0.000000 0.000000 55323.638058 119563.921408 0.000000 0.000000 0.000000 0.000000 0.000000 45616.780754 150210.095958 0.000000 0.000000 0.000000 0.000000 0.000000 14565.599369 9887.734818 0.000000 0.000000 0.000000 0.000000 0.000000 21404.662267 10668.838160 0.000000 0.000000 0.000000 0.000000 0.000000 53225.865967 142997.466149 0.000000 0.000000 0.000000 0.000000 0.000000 41684.465379 187425.686218 0.000000 0.000000 0.000000 0.000000 0.000000 26681.068429 167419.067152 0.000000 0.000000 0.000000 0.000000 0.000000 32069.584575 161103.502504 0.000000 0.000000 0.000000 0.000000 0.000000 79371.870228 362147.328398 0.000000 0.000000 0.000000 0.000000 0.000000 44417.110304 163512.161155 0.000000 0.000000 0.000000 0.000000 0.000000 13159.997137 37144.014697 0.000000 0.000000 0.000000 0.000000 0.000000 23988.220287 100009.530201 0.000000 0.000000 0.000000 0.000000 0.000000 23466.207318 59442.696276 0.000000 0.000000 0.000000 0.000000 0.000000 31278.112947 40475.140110 0.000000 0.000000 0.000000 0.000000 0.000000 38889.663355 55996.752238 0.000000 0.000000 0.000000 0.000000 0.000000 43659.030550 71917.453068 0.000000 0.000000 0.000000 0.000000 0.000000 62953.103027 126260.472581 0.000000 0.000000 0.000000 0.000000 0.000000 29102.584489 33007.351024 0.000000 0.000000 0.000000 0.000000 0.000000 11021.588255 0.000000 0.000000 0.000000 0.000000 0.000000 0.000000 17817.189926 22956.903989 0.000000 0.000000 0.000000 0.000000 0.000000 62259.338545 187797.206131 0.000000 0.000000 0.000000 0.000000 0.000000 45053.692368 73288.080110 0.000000 0.000000 0.000000 0.000000 0.000000 33355.032179 47205.475949 0.000000 0.000000 0.000000 0.000000 0.000000 16641.756305 43477.282844 0.000000 0.000000 0.000000 0.000000 0.000000 14161.242288 74433.862866 0.000000 0.000000 0.000000 0.000000 0.000000 3894.353977 31785.911828 0.000000 0.000000 0.000000 0.000000 0.000000 1986.853965 26311.952185 0.000000 0.000000 0.000000 0.000000 0.000000 680.602656 1993.354277 0.000000 0.000000 0.000000 0.000000 0.000000 1384.075085 0.000000 0.000000 0.000000 0.000000 0.000000 0.000000 32655.172228 141856.053478 0.000000 0.000000 0.000000 0.000000 0.000000 52969.374494 188673.221544 0.000000 0.000000 0.000000 0.000000 0.000000 37217.135428 105606.438860 0.000000 0.000000 0.000000 0.000000 0.000000 12146.327237 45229.775079 0.000000 0.000000 0.000000 0.000000 0.000000 25729.743294 135373.146386 0.000000 0.000000 0.000000 0.000000 0.000000 43288.516907 348246.689670 0.000000 0.000000 0.000000 0.000000 0.000000 43208.156602 422655.278967 0.000000 0.000000 0.000000 0.000000 0.000000 15154.556340 44440.194700 0.000000 0.000000 0.000000 0.000000 0.000000 13403.316071 215.039653 0.000000 0.000000 0.000000 0.000000 0.000000 65849.561029 322934.810580 0.000000 0.000000 0.000000 0.000000 0.000000 46653.961513 307671.338968 0.000000 0.000000 0.000000 0.000000 0.000000 51441.133653 249139.122174 0.000000 0.000000 0.000000 0.000000 0.000000 40295.903675 140794.034163 0.000000 0.000000 0.000000 0.000000 0.000000 18015.269671 79910.369268 0.000000 0.000000 0.000000 0.000000 0.000000 4093.505922 50878.520142 0.000000 0.000000 0.000000 0.000000 0.000000 0.000000 12906.297597 18043.220557 0.000000 0.000000 0.000000 7042.646849 0.000000 0.000000 0.000000 0.000000 0.000000 0.000000 0.000000 0.000000 0.000000 0.000000 0.000000 0.000000 0.000000 0.000000 0.000000 0.000000 0.000000 0.000000 0.000000 0.000000 0.000000 0.000000 0.000000 0.000000 0.000000 0.000000 0.000000 0.000000 0.000000 0.000000 0.000000 0.000000 0.000000 0.000000 0.000000 0.000000 0.000000 0.000000 0.000000 0.000000 0.000000 0.000000 0.000000 0.000000 0.000000 0.000000 0.000000 0.000000 0.000000 0.000000 0.000000 0.000000 0.000000 0.000000 0.000000 0.000000 0.000000 0.000000 0.000000 0.000000 0.000000 0.000000 0.000000 0.000000 0.000000 0.000000 0.000000 0.000000 0.000000 0.000000 0.000000 0.000000 0.000000 0.000000 0.000000 0.000000 0.000000 0.000000 0.000000 0.000000 0.000000 0.000000 0.000000 0.000000 0.000000 0.000000 0.000000 0.000000 0.000000 0.000000 0.000000 0.000000 0.000000 0.000000 0.000000 0.000000 0.000000 0.000000 0.000000 0.000000 0.000000 0.000000 0.000000 0.000000 0.000000 0.000000 0.000000 0.000000 0.000000 0.000000 0.000000 0.000000 0.000000 0.000000 0.000000 0.000000 0.000000 0.000000 0.000000 0.000000 0.000000 0.000000 0.000000 0.000000 0.000000 0.000000 0.000000 0.000000 0.000000 0.000000 0.000000 0.000000 0.000000 0.000000 0.000000 0.000000 0.000000 0.000000 0.000000 0.000000 0.000000 0.000000 0.000000 0.000000 0.000000 0.000000 0.000000 0.000000 0.000000 0.000000 0.000000 0.000000 0.000000 0.000000 0.000000 0.000000 0.000000 0.000000 0.000000 0.000000 0.000000 0.000000
</DataArray>
<DataArray type="Float64" Name="Velocity" NumberOfComponents="3" format="ascii">