<VTKFile type="PolyData">
<PolyData>
<Piece NumberOfPoints="1840" NumberOfVerts="1840" NumberOfLines="0" NumberOfStrips="0" NumberOfPolys="0">
<PointData>
<DataArray type="Float64" Name="Pressure" format="ascii">
 0.000000 0.000000 0.000000 0.000000 0.000000 0.000000 0.000000 0.000000 0.000000 0.000000 0.000000 0.000000 0.000000 0.000000 0.000000 0.000000 0.000000 0.000000 0.000000 0.000000 0.000000 0.000000 0.000000 0.000000 0.000000 0.000000 0.000000 0.000000 0.000000 0.000000 0.000000 0.000000 0.000000 0.000000 0.000000 0.000000 0.000000 0.000000 0.000000 0.000000 0.000000 0.000000 0.000000 0.000000 0.000000 0.000000 0.000000 0.000000 0.000000 0.000000 0.000000 0.000000 0.000000 0.000000 0.000000 0.000000 0.000000 0.000000 0.000000 0.000000 0.000000 0.000000 0.000000 0.000000 0.000000 0.000000 0.000000 0.000000 0.000000 0.000000 0.000000 0.000000 0.000000 0.000000 0.000000 0.000000 0.000000 0.000000 0.000000 0.000000 0.000000 0.000000 0.000000 0.000000 0.000000 0.000000 0.000000 0.000000 0.000000 0.000000 0.000000 0.000000 0.000000 0.000000 0.000000 0.000000 0.000000 0.000000 0.000000 0.000000 0.000000 0.000000 0.000000 0.000000 0.000000 0.000000 0.000000 0.000000 0.000000 0.000000 0.000000 0.000000 0.000000 0.000000 0.000000 0.000000 0.000000 0.000000 0.000000 0.000000 0.000000 0.000000 0.000000 0.000000 0.000000 0.000000 0.000000 0.000000 0.000000 0.000000 0.000000 0.000000 0.000000 0.000000 0.000000 0.000000 0.000000 0.000000 0.000000 0.000000 0.000000 0.000000 0.000000 0.000000 0.000000 0.000000 0.000000 0.000000 0.000000 0.000000 0.000000 0.000000 0.000000 0.000000 0.000000 0.000000 0.000000 0.000000 0.000000 0.000000 0.000000 0.000000 0.000000 0.000000 0.000000 0.000000 0.000000 0.000000 0.000000 0.000000 0.000000 0.000000 0.000000 0.000000 0.000000 0.000000 0.000000 0.000000 0.000000 0.000000 0.000000 0.000000 0.000000 0.000000 0.000000 0.000000 0.000000 0.000000 0.000000 0.000000 0.000000 0.000000 0.000000 0.000000 0.000000 0.000000 0.000000 0.000000 0.000000 0.000000 0.000000 0.000000 0.000000 0.000000 0.000000 0.000000 0.000000 0.000000 0.000000 0.000000 0.000000 0.000000 0.000000 0.000000 0.000000 0.000000 0.000000 0.000000 0.000000 0.000000 0.000000 0.000000 0.000000 0.000000 0.000000 0.000000 0.000000 0.000000 0.000000 0.000000 0.000000 0.000000 0.000000 0.000000 0.000000 0.000000 0.000000 0.000000 0.000000 0.000000 0.000000 29059.368829 0.000000 0.000000 0.000000 0.000000 0.000000 0.000000 0.000000 153731.585749 0.000000 86803.128657 10156.872803 0.000000 30294.283327 0.000000 0.000000 22179.096767 40912.252837 0.000000 265642.635509 0.000000 0.000000 0.000000 32957.837724 0.000000 40380.982160 0.000000 0.000000 0.000000 371.802668 0.000000 0.000000 0.000000 0.000000 0.000000 7776.008068 0.000000 0.000000 98501.413806 0.000000 0.000000 0.000000 0.000000 11829.933265 11676.988284 0.000000 122737.906543 0.000000 0.000000 0.000000 1918.003803 0.000000 12647.116214 0.000000 0.000000 0.000000 0.000000 0.000000 0.000000 0.000000 0.000000 0.000000 0.000000 0.000000 0.000000 0.000000 16840.789805 33154.511256 0.000000 0.000000 114909.931477 0.000000 46989.304182 0.000000 0.000000 0.000000 0.000000 0.000000 0.000000 0.000000 0.000000 30421.332228 79083.924191 206102.032506 0.000000 171937.865442 0.000000 0.000000 44979.357625 0.000000 0.000000 0.000000 0.000000 5652.661797 0.000000 89047.672120 301944.336879 0.000000 0.000000 0.000000 0.000000 0.000000 0.000000 0.000000 127220.348737 0.000000 0.000000 0.000000 0.000000 4521.368104 0.000000 0.000000 199836.098812 58046.261693 0.000000 100764.461443 0.000000 0.000000 0.000000 0.000000 86970.532051 38714.612628 0.000000 0.000000 0.000000 0.000000 0.000000 39049.868078 157778.823547 0.000000 0.000000 37306.870534 927.547764 0.000000 2799.137405 2102.002381 0.000000 0.000000 0.000000 0.000000 243047.667663 0.000000 0.000000 0.000000 0.000000 0.000000 0.000000 73982.906643 0.000000 0.000000 0.000000 0.000000 21094.829862 0.000000 4866.864214 0.000000 0.000000 0.000000 0.000000 11827.852272 70548.724449 115648.115742 14691.103445 102565.695845 0.000000 0.000000 0.000000 67093.852499 0.000000 0.000000 0.000000 0.000000 0.000000 65654.439481 139963.469439 0.000000 0.000000 0.000000 54080.317798 0.000000 0.000000 13544.084405 0.000000 0.000000 0.000000 0.000000 33725.213811 362510.616946 0.000000 0.000000 0.000000 0.000000 0.000000 0.000000 0.000000 0.000000 0.000000 0.000000 185126.104882 0.000000 282142.557199 20181.654853 84988.900249 23187.572739 0.000000 24587.382233 239252.393435 0.000000 0.000000 21535.861366 0.000000 0.000000 122168.244007 0.000000 0.000000 0.000000 0.000000 0.000000 0.000000 25542.169635 17020.658831 0.000000 75362.736820 0.000000 30150.874151 0.000000 0.000000 0.000000 0.000000 0.000000 0.000000 0.000000 0.000000 33893.792997 0.000000 0.000000 129167.223291 0.000000 65236.769685 0.000000 102689.600911 0.000000 0.000000 0.000000 0.000000 3455.775663 0.000000 83733.984971 0.000000 0.000000 0.000000 0.000000 0.000000 0.000000 250951.729762 0.000000 8221.862982 106311.508150 48718.099640 0.000000 0.000000 0.000000 0.000000 0.000000 0.000000 21056.391728 39993.472942 0.000000 0.000000 0.000000 0.000000 0.000000 0.000000 0.000000 0.000000 0.000000 0.000000 0.000000 0.000000 0.000000 0.000000 0.000000 0.000000 0.000000 0.000000 54722.459081 108770.853603 12793.211406 0.000000 0.000000 0.000000 0.000000 0.000000 70051.034086 0.000000 0.000000 220633.770240 0.000000 0.000000 0.000000 94512.420469 0.000000 0.000000 114614.278904 43450.300405 0.000000 0.000000 0.000000 0.000000 0.000000 0.000000 14080.905457 13070.217621 235101.491219 0.000000 0.000000 163169.120386 98461.706972 0.000000 0.000000 177010.299238 65408.155510 6249.810346 15242.188900 0.000000 0.000000 204705.520225 0.000000 79350.436635 142013.336315 0.000000 188625.841813 0.000000 0.000000 30506.902812 44786.150978 0.000000 225829.130834 0.000000 0.000000 0.000000 193734.901541 0.000000 862.270442 0.000000 0.000000 0.000000 0.000000 420298.474797 31064.269919 0.000000 112648.872937 0.000000 0.000000 0.000000 0.000000 0.000000 0.000000 0.000000 0.000000 0.000000 203618.848627 0.000000 13891.496137 0.000000 227779.192081 0.000000 0.000000 0.000000 0.000000 0.000000 2836.436714 0.000000 168.826674 0.000000 0.000000 0.000000 0.000000 0.000000 0.000000 0.000000 360323.832430 0.000000 66565.056450 0.000000 0.000000 0.000000 0.000000 0.000000 0.000000 0.000000 23157.769976 0.000000 0.000000 0.000000 0.000000 0.000000 0.000000 0.000000 0.000000 0.000000 0.000000 0.000000 0.000000 0.000000 85944.537987 0.000000 0.000000 0.000000 117804.946849 49663.132724 73913.660926 3640.682116 0.000000 0.000000 0.000000 0.000000 0.000000 58782.577788 955.457425 0.000000 0.000000 77718.322966 2800.276210 0.000000 4833.880978 41958.872583 31584.800417 0.000000 0.000000 105594.360837 0.000000 0.000000 0.000000 0.000000 0.000000 107611.337275 263094.650921 0.000000 0.000000 0.000000 282499.026555 0.000000 272954.510509 0.000000 0.000000 0.000000 0.000000 0.000000 0.000000 0.000000 0.000000 227408.387119 0.000000 0.000000 0.000000 0.000000 102014.794383 226066.968900 0.000000 4324.361687 267698.556884 18125.920084 0.000000 144081.127606 57374.249988 0.000000 87774.712259 53000.209864 0.000000 0.000000 0.000000 0.000000 0.000000 0.000000 79686.221408 0.000000 0.000000 13048.891825 34879.653630 217612.514965 0.000000 122558.263135 0.000000 0.000000 0.000000 0.000000 0.000000 0.000000 0.000000 0.000000 0.000000 0.000000 0.000000 0.000000 8802.530634 17734.418482 66057.331462 104572.491557 0.000000 86617.780246 13391.286093 0.000000 28389.813300 0.000000 0.000000 0.000000 0.000000 0.000000 0.000000 0.000000 0.000000 0.000000 0.000000 0.000000 0.000000 0.000000 0.000000 36986.316174 0.000000 0.000000 56571.171689 0.000000 27875.339985 0.000000 0.000000 0.000000 0.000000 0.000000 261421.163740 0.000000 0.000000 0.000000 256966.310408 0.000000 18308.570461 0.000000 0.000000 0.000000 0.000000 0.000000 6416.209035 8913.655679 129944.953306 198200.381266 0.000000 0.000000 26927.760335 0.000000 0.000000 0.000000 5493.890255 0.000000 0.000000 0.000000 122056.078367 0.000000 0.000000 0.000000 66083.007086 0.000000 0.000000 0.000000 0.000000 0.000000 7917.000889 0.000000 0.000000 0.000000 0.000000 0.000000 0.000000 0.000000 151419.678866 0.000000 0.000000 23613.193490 0.000000 11166.456891 0.000000 0.000000 0.000000 0.000000 0.000000 0.000000 0.000000 0.000000 0.000000 0.000000 78994.292928 8439.060254 17336.562399 166680.859424 0.000000 0.000000 0.000000 0.000000 7726.304022 0.000000 0.000000 0.000000 33867.814911 28051.518773 36488.054971 0.000000 0.000000 0.000000 0.000000 85156.453260 0.000000 0.000000 0.000000 0.000000 0.000000 0.000000 0.000000 0.000000 159566.614939 119135.853777 0.000000 0.000000 0.000000 81197.596076 0.000000 0.000000 0.000000 42605.784141 76263.778541 0.000000 0.000000 0.000000 0.000000 0.000000 6161.925508 34185.208245 138453.948594 142845.540584 0.000000 0.000000 35469.225639 0.000000 247085.023565 55582.247459 0.000000 5141.480115 30191.171139 8823.778125 0.000000 7651.763977 0.000000 0.000000 0.000000 0.000000 0.000000 33242.590872 0.000000 0.000000 0.000000 0.000000 0.000000 0.000000 0.000000 0.000000 120028.033928 0.000000 0.000000 39509.004853 120243.919057 0.000000 0.000000 155374.167414 0.000000 0.000000 176214.284472 0.000000 0.000000 0.000000 0.000000 0.000000 5729.243294 13206.819994 8805.958851 0.000000 0.000000 0.000000 0.000000 0.000000 0.000000 0.000000 621.037352 0.000000 0.000000 0.000000 0.000000 79886.679391 27835.046715 0.000000 0.000000 62281.240452 0.000000 0.000000 0.000000 0.000000 0.000000 0.000000 0.000000 0.000000 0.000000 1431.083338 0.000000 11095.058493 0.000000 0.000000 48076.799137 0.000000 0.000000 0.000000 0.000000 0.000000 0.000000 0.000000 0.000000 0.000000 0.000000 0.000000 3783.828715 0.000000 0.000000 153277.140201 342499.963269 0.000000 0.000000 135639.353010 0.000000 0.000000 40145.162586 0.000000 0.000000 43903.492486 39883.465610 0.000000 0.000000 0.000000 0.000000 0.000000 0.000000 0.000000 0.000000 0.000000 44164.838042 0.000000 0.000000 65675.637004 76751.325906 220345.047259 0.000000 0.000000 0.000000 0.000000 0.000000 0.000000 0.000000 0.000000 99538.831228 0.000000 0.000000 0.000000 0.000000 0.000000 0.000000 0.000000 5735.345443 8405.381991 112337.639385 0.000000 60778.247954 0.000000 32548.762389 32548.762389 0.000000 0.000000 8990.727888 0.000000 187277.467497 0.000000 0.000000 0.000000 0.000000 0.000000 0.000000 179633.103787 0.000000 0.000000 0.000000 0.000000 0.000000 0.000000 90742.197544 0.000000 0.000000 0.000000 0.000000 0.000000 0.000000 0.000000 65138.305366 0.000000 0.000000 0.000000 0.000000 0.000000 30245.190666 0.000000 0.000000 0.000000 0.000000 0.000000 13514.090194 76241.867410 0.000000 0.000000 0.000000 0.000000 0.000000 0.000000 0.000000 0.000000 0.000000 0.000000 0.000000 0.000000 145803.039467 0.000000 0.000000 138252.563367 0.000000 197798.589101 0.000000 0.000000 55644.205474 0.000000 0.000000 62588.397575 5756.357068 0.000000 0.000000 182883.239068 15831.459379 321902.333351 0.000000 0.000000 9074.536074 0.000000 0.000000 440946.459530 82097.287926 0.000000 0.000000 0.000000 0.000000 0.000000 0.000000 0.000000 5644.819160 50628.528759 0.000000 0.000000 0.000000 0.000000 0.000000 11001.930312 48376.699657 0.000000 0.000000 0.000000 0.000000 0.000000 26817.921546 71891.604630 0.000000 0.000000 0.000000 0.000000 0.000000 16477.761793 38970.884948 0.000000 0.000000 0.000000 0.000000 0.000000 0.000000 0.000000 0.000000 0.000000 0.000000 0.000000 0.000000 0.000000 0.000000 0.000000 0.000000 0.000000 0.000000 0.000000 0.000000 0.000000 0.000000 0.000000 0.000000 0.000000 0.000000 0.000000 0.000000 0.000000 0.000000 0.000000 0.000000 0.000000 0.000000 0.000000 0.000000 0.000000 0.000000 0.000000 0.000000 1630.376274 0.000000 0.000000 0.000000 0.000000 0.000000 0.000000 14843.618561 95710.949608 0.000000 0.000000 0.000000 0.000000 0.000000 8506.701628 70726.988488 0.000000 0.000000 0.000000 0.000000 0.000000 33655.457997 48065.806698 0.000000 0.000000 0.000000 0.000000 0.000000 44820.483033 133333.993922 0.000000 0.000000 0.000000 0.000000 0.000000 9816.219500 69670.694076 0.000000 0.000000 0.000000 0.000000 0.000000 49.552556 3804.090691 0.000000 0.000000 0.000000 0.000000 0.000000 0.000000 0.000000 0.000000 0.000000 0.000000 0.000000 0.000000 12106.770025 3513.903602 0.000000 0.000000 0.000000 0.000000 0.000000 25311.195550 133063.056449 0.000000 0.000000 0.000000 0.000000 0.000000 16342.783806 131240.505847 0.000000 0.000000 0.000000 0.000000 0.000000 27527.727298 253408.089783 0.000000 0.000000 0.000000 0.000000 0.000000 59327.453811 246984.812650 0.000000 0.000000 0.000000 0.000000 0.000000 59845.685577 73266.222390 0.000000 0.000000 0.000000 0.000000 0.000000 39491.337616 31577.209127 0.000000 0.000000 0.000000 0.000000 0.000000 26381.375051 51294.946852 0.000000 0.000000 0.000000 0.000000 0.000000 3595.031113 4527.470532 0.000000 0.000000 0.000000 0.000000 0.000000 9111.268137 0.000000 0.000000 0.000000 0.000000 0.000000 0.000000 32102.527551 84768.368679 0.000000 0.000000 0.000000 0.000000 0.000000 8787.709805 4861.395405 0.000000 0.000000 0.000000 0.000000 0.000000 1076.440447 0.000000 0.000000 0.000000 0.000000 0.000000 0.000000 19724.831474 164276.224022 0.000000 0.000000 0.000000 0.000000 0.000000 17023.308930 97098.288798 0.000000 0.000000 0.000000 0.000000 0.000000 0.000000 0.000000 0.000000 0.000000 0.000000 0.000000 0.000000 423.592220 0.000000 0.000000 0.000000 0.000000 0.000000 0.000000 8423.967839 36164.719112 0.000000 0.000000 0.000000 0.000000 0.000000 17202.419675 29779.192452 0.000000 0.000000 0.000000 0.000000 0.000000 49391.022031 101304.373210 0.000000 0.000000 0.000000 0.000000 0.000000 76203.454245 271717.822356 0.000000 0.000000 0.000000 0.000000 0.000000 53001.326143 90621.856769 0.000000 0.000000 0.000000 0.000000 0.000000 3726.461811 0.000000 0.000000 0.000000 0.000000 0.000000 0.000000 13620.380766 0.000000 0.000000 0.000000 0.000000 0.000000 0.000000 79195.044661 213136.956045 0.000000 0.000000 0.000000 0.000000 0.000000 45863.477810 94772.217506 0.000000 0.000000 0.000000 0.000000 0.000000 36702.535028 35792.414422 0.000000 0.000000 0.000000 0.000000 0.000000 42104.015653 106033.629907 0.000000 0.000000 0.000000 0.000000 0.000000 14578.323916 13389.600654 0.000000 0.000000 0.000000 0.000000 0.000000 31468.720435 37818.646357 0.000000 0.000000 0.000000 0.000000 0.000000 21867.883425 109211.037508 0.000000 0.000000 0.000000 0.000000 0.000000 11344.931673 112354.309130 0.000000 0.000000 0.000000 0.000000 0.000000 320.553421 0.000000 0.000000 0.000000 0.000000 0.000000 0.000000 0.000000 0.000000 0.000000 0.000000 0.000000 0.000000 0.000000 0.000000 0.000000 0.000000 0.000000 0.000000 0.000000 0.000000 0.000000 0.000000 0.000000 0.000000 0.000000 0.000000 0.000000 0.000000 0.000000 0.000000 0.000000 0.000000 0.000000 0.000000 12209.313162 0.000000 0.000000 0.000000 0.000000 0.000000 0.000000 51409.347349 190917.197183 0.000000 0.000000 0.000000 0.000000 0.000000 35739.504856 211575.566833 0.000000 0.000000 0.000000 0.000000 0.000000 36606.270757 116928.400800 0.000000 0.000000 0.000000 0.000000 0.000000 18916.878432 9786.203862 0.000000 0.000000 0.000000 0.000000 0.000000 7736.439599 0.000000 0.000000 0.000000 0.000000 0.000000 0.000000 3599.064600 0.000000 0.000000 0.000000 0.000000 0.000000 0.000000 234.085041 6856.154862 0.000000 0.000000 0.000000 0.000000 0.000000 0.000000 0.000000 0.000000 0.000000 0.000000 0.000000 0.000000 0.000000 0.000000 0.000000 0.000000 0.000000 0.000000 0.000000 0.000000 0.000000 0.000000 0.000000 0.000000 0.000000 0.000000 142.833060 0.000000 0.000000 0.000000 0.000000 0.000000 0.000000 2575.629859 0.000000 0.000000 0.000000 0.000000 0.000000 0.000000 13973.372360 109157.726230 0.000000 0.000000 0.000000 0.000000 0.000000 13760.164541 96767.116786 0.000000 0.000000 0.000000 0.000000 0.000000 16314.419860 48293.437250 0.000000 0.000000 0.000000 0.000000 0.000000 72446.413594 304865.820741 0.000000 0.000000 0.000000 0.000000 0.000000 57925.092014 164399.283399 0.000000 0.000000 0.000000 0.000000 0.000000 8802.927152 0.000000 0.000000 0.000000 0.000000 0.000000 0.000000 42526.988405 90082.864107 0.000000 0.000000 0.000000 0.000000 0.000000 46212.840111 171899.862691 0.000000 0.000000 0.000000 0.000000 0.000000 25667.874129 137426.313688 0.000000 0.000000 0.000000 0.000000 0.000000 49954.270967 236450.863980 0.000000 0.000000 0.000000 0.000000 0.000000 38958.910157 180571.294028 0.000000 0.000000 0.000000 0.000000 0.000000 59240.240411 166023.745824 0.000000 0.000000 0.000000 0.000000 0.000000 46104.476733 176266.048810 0.000000 0.000000 0.000000 0.000000 0.000000 11453.572521 93534.729965 0.000000 0.000000 0.000000 0.000000 0.000000 1261.189095 17141.763763 23143.667629 4085.646592 0.000000 0.000000 0.000000 0.000000 0.000000 11808.977806 0.000000 0.000000 0.000000 0.000000 0.000000 0.000000 0.000000 0.000000 0.000000 0.000000 0.000000 0.000000 0.000000 0.000000 0.000000 0.000000 0.000000 0.000000 0.000000 0.000000 0.000000 0.000000 0.000000 0.000000 0.000000 0.000000 0.000000 0.000000 0.000000 0.000000 0.000000 0.000000 0.000000 0.000000 0.000000 0.000000 0.000000 0.000000 0.000000 0.000000 0.000000 0.000000 0.000000 0.000000 0.000000 0.000000 0.000000 0.000000 0.000000 0.000000 0.000000 0.000000 0.000000 0.000000 0.000000 0.000000 0.000000 0.000000 0.000000 0.000000 0.000000 0.000000 0.000000 0.000000 0.000000 0.000000 0.000000 0.000000 0.000000 0.000000 0.000000 0.000000 0.000000 0.000000 0.000000 0.000000 0.000000 0.000000 0.000000 0.000000 0.000000 0.000000 0.000000 0.000000 0.000000 0.000000 0.000000 0.000000 0.000000 0.000000 0.000000 0.000000 0.000000 0.000000 0.000000 0.000000 0.000000 0.000000 0.000000 0.000000 0.000000 0.000000 0.000000 0.000000 0.000000 0.000000 0.000000 0.000000 0.000000 0.000000 0.000000 0.000000 0.000000 0.000000 0.000000 0.000000 0.000000 0.000000 0.000000 0.000000 0.000000 0.000000 0.000000 0.000000 0.000000 0.000000 0.000000 0.000000 0.000000 0.000000 0.000000 0.000000 0.000000 0.000000 0.000000 0.000000 0.000000 0.000000 0.000000 0.000000 0.000000 0.000000 0.000000 0.000000 0.000000 0.000000 0.000000 0.000000 0.000000 0.000000 0.000000 0.000000 0.000000 0.000000 0.000000 0.000000 0.000000 0.000000 0.000000
</DataArray>
<DataArray type="Float64" Name="Velocity" NumberOfComponents="3" format="ascii">