<VTKFile type="PolyData">
<PolyData>
<Piece NumberOfPoints="1840" NumberOfVerts="1840" NumberOfLines="0" NumberOfStrips="0" NumberOfPolys="0">
<PointData>
<DataArray type="Float64" Name="Pressure" format="ascii">
 0.000000 0.000000 0.000000 0.000000 0.000000 0.000000 0.000000 0.000000 0.000000 0.000000 0.000000 0.000000 0.000000 0.000000 0.000000 0.000000 0.000000 0.000000 0.000000 0.000000 0.000000 0.000000 0.000000 0.000000 0.000000 0.000000 0.000000 0.000000 0.000000 0.000000 0.000000 0.000000 0.000000 0.000000 0.000000 0.000000 0.000000 0.000000 0.000000 0.000000 0.000000 0.000000 0.000000 0.000000 0.000000 0.000000 0.000000 0.000000 0.000000 0.000000 0.000000 0.000000 0.000000 0.000000 0.000000 0.000000 0.000000 0.000000 0.000000 0.000000 0.000000 0.000000 0.000000 0.000000 0.000000 0.000000 0.000000 0.000000 0.000000 0.000000 0.000000 0.000000 0.000000 0.000000 0.000000 0.000000 0.000000 0.000000 0.000000 0.000000 0.000000 0.000000 0.000000 0.000000 0.000000 0.000000 0.000000 0.000000 0.000000 0.000000 0.000000 0.000000 0.000000 0.000000 0.000000 0.000000 0.000000 0.000000 0.000000 0.000000 0.000000 0.000000 0.000000 0.000000 0.000000 0.000000 0.000000 0.000000 0.000000 0.000000 0.000000 0.000000 0.000000 0.000000 0.000000 0.000000 291.508445 9008.182120 11579.224372 0.000000 3333.264939 5546.588801 0.000000 0.000000 0.000000 0.000000 0.000000 0.000000 0.000000 0.000000 0.000000 0.000000 0.000000 0.000000 0.000000 0.000000 0.000000 0.000000 0.000000 0.000000 0.000000 0.000000 0.000000 0.000000 0.000000 0.000000 0.000000 0.000000 0.000000 0.000000 0.000000 0.000000 0.000000 0.000000 0.000000 0.000000 0.000000 0.000000 0.000000 0.000000 0.000000 0.000000 0.000000 0.000000 0.000000 0.000000 0.000000 0.000000 0.000000 0.000000 0.000000 0.000000 0.000000 5854.012723 52475.157559 48717.495269 0.000000 27121.732192 14835.869283 0.000000 0.000000 0.000000 0.000000 0.000000 0.000000 0.000000 0.000000 0.000000 0.000000 0.000000 0.000000 0.000000 0.000000 0.000000 0.000000 0.000000 0.000000 0.000000 0.000000 0.000000 0.000000 0.000000 0.000000 0.000000 0.000000 0.000000 0.000000 0.000000 0.000000 0.000000 0.000000 0.000000 0.000000 0.000000 0.000000 0.000000 0.000000 0.000000 0.000000 0.000000 0.000000 0.000000 0.000000 0.000000 0.000000 0.000000 0.000000 0.000000 0.000000 0.000000 3849.648731 32547.102246 68334.437032 27374.176635 59989.782269 60476.709726 0.000000 0.000000 0.000000 73519.512293 0.000000 0.000000 0.000000 56728.971499 0.000000 15768.715117 0.000000 62763.899861 2090.580005 34301.472302 0.000000 0.000000 0.000000 93660.666641 0.000000 164579.845838 86415.246528 23782.027614 0.000000 0.000000 0.000000 18557.373108 45512.960624 80797.747188 62382.388734 0.000000 33898.400653 17351.141715 0.000000 0.000000 16556.340918 0.000000 0.000000 0.000000 0.000000 0.000000 0.000000 13777.190312 23017.681662 12402.914488 145896.246469 29781.959676 0.000000 0.000000 57919.853937 0.000000 69303.274232 75222.605039 0.000000 63841.010538 4542.314887 0.000000 0.000000 0.000000 23237.752946 0.000000 0.000000 6705.540129 48276.327053 53143.518122 84709.539358 17487.356785 0.000000 25083.669093 0.000000 0.000000 0.000000 0.000000 85211.263991 0.000000 0.000000 0.000000 92501.707793 27894.981247 8105.940361 87227.305045 0.000000 0.000000 0.000000 0.000000 0.000000 0.000000 13140.348853 39230.534087 88744.218251 18970.941772 0.000000 66456.412759 0.000000 67493.449273 52170.280757 0.000000 50607.877605 44297.814312 52977.014021 17750.516420 42413.652831 29653.100946 9019.734049 28671.026598 92054.868500 56598.588331 56819.556210 0.000000 12229.988111 120218.715252 23401.227861 0.000000 84107.994164 18395.921334 0.000000 0.000000 0.000000 59767.739758 43659.030339 0.000000 0.000000 46197.167880 0.000000 0.000000 0.000000 0.000000 129881.969408 0.000000 0.000000 0.000000 0.000000 0.000000 30291.544155 68242.887341 53288.105804 63649.905607 57249.994639 0.000000 36813.358243 6326.214269 4234.346293 43575.524868 45622.253153 44198.208622 41355.591184 15426.855441 45940.437985 63537.469249 26542.615157 54653.218714 0.000000 0.000000 0.000000 0.000000 58108.470656 0.000000 117221.647187 141.092201 66934.003616 0.000000 34938.130662 0.000000 2986.437956 14562.850888 29684.406484 76939.922465 29498.642138 0.000000 36234.707073 0.000000 74427.202687 59695.488598 34910.416164 0.000000 0.000000 0.000000 0.000000 0.000000 14625.476450 39259.962960 88569.272819 39129.447262 33430.901871 74843.776576 29541.440409 36022.157492 82724.785956 0.000000 37619.378471 44210.751936 86825.877849 21887.661661 66116.479324 61180.260813 43358.339345 76630.076283 22333.419510 30773.290410 65471.757061 61731.160231 29847.216016 76308.404325 0.000000 0.000000 0.000000 35296.434839 10329.135598 89637.017984 14230.059264 35771.291445 0.000000 0.000000 26389.801332 0.000000 0.000000 2708.141102 0.000000 8342.349772 24435.048617 0.000000 0.000000 0.000000 0.000000 0.000000 15209.810750 55367.065169 124532.035754 0.000000 61052.762371 0.000000 22348.411252 0.000000 65665.458152 0.000000 28259.334557 0.000000 72937.204246 72408.846499 32565.314077 20870.411940 36898.533724 35264.846050 129814.779601 28025.474312 56877.204859 0.000000 67370.190879 76173.808690 23495.437872 75099.504794 0.000000 55823.177953 0.000000 33014.175378 14257.601996 0.000000 2121.229619 0.000000 0.000000 88966.762111 7343.779925 29860.949972 0.000000 35249.871826 1962.324124 0.000000 0.000000 0.000000 0.000000 0.000000 25214.362217 112817.352451 13800.626962 0.000000 14984.420048 43342.527322 0.000000 31067.718845 82376.075205 42019.410539 5840.467290 4359.076293 38450.805939 43487.147965 52491.904491 61597.198154 56231.947536 43941.063783 4145.979041 54520.334960 33386.572371 32584.466818 16738.768450 51474.267298 0.000000 14841.632400 4990.601565 0.000000 46398.636823 25616.398554 20639.270114 36241.956442 0.000000 27270.323002 0.000000 0.000000 62035.402788 0.000000 46099.721871 28789.902428 6739.654422 0.000000 0.000000 0.000000 0.000000 0.000000 11781.496863 53069.591315 5660.576827 100814.306365 80458.024260 46986.351855 0.000000 26672.478490 0.000000 49029.262796 0.000000 29940.218994 0.000000 0.000000 0.000000 0.000000 0.000000 26875.260626 0.000000 18104.718012 5421.342764 0.000000 0.000000 2201.369258 9406.748318 0.000000 0.000000 0.000000 0.000000 14391.363760 34851.932619 101500.538910 91263.914420 0.000000 51627.578436 0.000000 7709.831921 2965.888634 0.000000 1655.548268 0.000000 0.000000 0.000000 0.000000 0.000000 0.000000 9146.645338 27381.577004 0.000000 0.000000 670992.073284 73260.232841 201806.214502 0.000000 44222.988198 0.000000 6502.460326 0.000000 90192.418571 28349.514712 0.000000 0.000000 0.000000 47791.810536 54448.138217 0.000000 0.000000 14249.964089 49140.440723 31741.857577 12545.442210 0.000000 91636.981939 1087.328890 67329.699824 98385.966213 41422.799285 26021.544357 0.000000 0.000000 4456.962427 68782.941830 17853.838301 0.000000 0.000000 0.000000 0.000000 0.000000 0.000000 0.000000 0.000000 0.000000 23654.086633 38489.082417 0.000000 0.000000 0.000000 133582.571059 0.000000 149511.308152 0.000000 429024.683703 0.000000 0.000000 0.000000 37765.495293 0.000000 37709.559396 0.000000 0.000000 0.000000 3810.523460 0.000000 0.000000 0.000000 0.000000 0.000000 0.000000 0.000000 0.000000 0.000000 98167.479046 33574.426135 0.000000 155.660127 0.000000 0.000000 0.000000 78790.329785 47724.533478 62458.955642 0.000000 21423.985074 0.000000 0.000000 0.000000 0.000000 0.000000 59576.958328 155675.947017 38131.031841 0.000000 0.000000 0.000000 0.000000 0.000000 0.000000 270680.297545 180766.146642 0.000000 0.000000 5719.539363 571799.646688 227519.383931 179804.618874 56982.376533 0.000000 0.000000 0.000000 86515.546533 54011.892840 148627.446320 55997.150955 12611.483615 50576.453412 11352.029107 0.000000 15528.818283 9540.732003 0.000000 0.000000 70379.856247 38910.915926 0.000000 0.000000 0.000000 44760.029687 0.000000 0.000000 0.000000 0.000000 0.000000 0.000000 0.000000 36067.581004 87326.002630 0.000000 0.000000 0.000000 0.000000 0.000000 0.000000 0.000000 272277.346991 0.000000 0.000000 174271.584720 100848.850533 0.000000 391649.678644 952188.464823 62699.113671 425245.114940 0.000000 87265.138464 0.000000 70406.334545 0.000000 9321.063990 0.000000 33836.110642 0.000000 83083.862399 50136.398086 69957.317354 1017.175625 22798.638579 0.000000 0.000000 62348.702695 13453.998666 0.000000 0.000000 31467.517734 4813.389009 0.000000 0.000000 0.000000 0.000000 0.000000 35797.327621 103915.370715 0.000000 0.000000 0.000000 0.000000 0.000000 0.000000 0.000000 440830.441274 0.000000 0.000000 33201.779845 0.000000 37650.849576 0.000000 0.000000 0.000000 121582.440848 0.000000 0.000000 324619.715623 185673.444059 176833.732668 85827.096893 27643.591898 263711.045151 0.000000 959999.392823 0.000000 0.000000 53386.843324 38292.614845 0.000000 6770.280351 51862.047435 0.000000 0.000000 33641.874064 26279.035392 0.000000 0.000000 0.000000 0.000000 0.000000 0.000000 22547.001348 98208.024114 46557.885686 0.000000 63584.115146 182316.725629 0.000000 0.000000 0.000000 0.000000 0.000000 0.000000 0.000000 0.000000 0.000000 0.000000 0.000000 0.000000 0.000000 0.000000 45603.133062 0.000000 0.000000 0.000000 0.000000 0.000000 0.000000 102585.438321 151259.174606 80402.061634 0.000000 0.000000 0.000000 219809.613272 24168.472083 59682.505276 1303.962561 0.000000 0.000000 0.000000 0.000000 0.000000 0.000000 0.000000 0.000000 0.000000 32598.440614 102372.597521 22232.588164 0.000000 0.000000 0.000000 0.000000 0.000000 0.000000 0.000000 0.000000 0.000000 0.000000 0.000000 0.000000 0.000000 0.000000 0.000000 0.000000 0.000000 0.000000 0.000000 0.000000 99872.545394 0.000000 0.000000 0.000000 75960.008940 447660.429967 0.000000 378378.481068 0.000000 0.000000 0.000000 191320.523137 55048.937149 7741.009398 0.000000 32630.721088 21168.213866 47609.611944 0.000000 0.000000 0.000000 0.000000 0.000000 29681.924175 87946.802111 0.000000 0.000000 0.000000 0.000000 0.000000 0.000000 0.000000 0.000000 0.000000 0.000000 0.000000 0.000000 0.000000 0.000000 0.000000 0.000000 0.000000 0.000000 0.000000 0.000000 0.000000 0.000000 0.000000 0.000000 0.000000 0.000000 0.000000 0.000000 0.000000 0.000000 0.000000 150665.868085 57092.992268 4331.683147 0.000000 109453.967647 20539.313945 0.000000 37800.765302 0.000000 0.000000 0.000000 0.000000 0.000000 23646.570592 83534.154479 0.000000 0.000000 0.000000 0.000000 0.000000 0.000000 0.000000 0.000000 0.000000 0.000000 0.000000 0.000000 0.000000 0.000000 0.000000 0.000000 0.000000 0.000000 0.000000 0.000000 0.000000 0.000000 0.000000 0.000000 0.000000 0.000000 0.000000 0.000000 0.000000 0.000000 53761.637428 39164.918623 186663.907192 199354.249588 86893.946514 0.000000 0.000000 30846.599180 0.000000 0.000000 0.000000 0.000000 0.000000 0.000000 15678.195019 40351.934166 0.000000 0.000000 0.000000 0.000000 309001.973715 309001.973715 0.000000 355388.325037 0.000000 0.000000 0.000000 0.000000 0.000000 0.000000 0.000000 0.000000 0.000000 0.000000 0.000000 0.000000 0.000000 0.000000 0.000000 0.000000 0.000000 0.000000 0.000000 0.000000 0.000000 0.000000 0.000000 0.000000 0.000000 0.000000 0.000000 10711.510885 94390.315701 66003.659363 46836.185092 0.000000 0.000000 0.000000 0.000000 0.000000 45007.571254 123569.431254 120486.907215 0.000000 0.000000 0.000000 0.000000 0.000000 0.000000 0.000000 0.000000 0.000000 0.000000 0.000000 0.000000 0.000000 0.000000 0.000000 0.000000 0.000000 0.000000 0.000000 0.000000 0.000000 0.000000 0.000000 0.000000 0.000000 0.000000 0.000000 0.000000 0.000000 0.000000 0.000000 0.000000 0.000000 491662.732146 0.000000 114198.560539 0.000000 0.000000 0.000000 0.000000 0.000000 0.000000 0.000000 56868.598194 159814.581627 0.000000 0.000000 0.000000 0.000000 0.000000 37535.910094 123189.032464 0.000000 0.000000 0.000000 0.000000 0.000000 7734.544875 38747.792323 0.000000 0.000000 0.000000 0.000000 0.000000 1737.035093 28031.302359 0.000000 0.000000 0.000000 0.000000 0.000000 2811.895550 24897.896052 0.000000 0.000000 0.000000 0.000000 0.000000 14343.608798 56193.105072 0.000000 0.000000 0.000000 0.000000 0.000000 36854.537089 98179.638451 0.000000 0.000000 0.000000 0.000000 0.000000 33109.800789 44538.406471 0.000000 0.000000 0.000000 0.000000 0.000000 25032.650744 45683.639915 0.000000 0.000000 0.000000 0.000000 0.000000 12390.955708 41521.707615 0.000000 0.000000 0.000000 0.000000 0.000000 6417.703691 39141.865861 0.000000 0.000000 0.000000 0.000000 0.000000 19866.265749 58603.576352 0.000000 0.000000 0.000000 0.000000 0.000000 26167.594565 56170.630400 0.000000 0.000000 0.000000 0.000000 0.000000 52555.061797 107366.079820 0.000000 0.000000 0.000000 0.000000 0.000000 46688.041718 107272.962436 0.000000 0.000000 0.000000 0.000000 0.000000 27194.724692 98378.707306 0.000000 0.000000 0.000000 0.000000 0.000000 13906.681549 71451.119892 0.000000 0.000000 0.000000 0.000000 0.000000 9216.959751 57731.440452 0.000000 0.000000 0.000000 0.000000 0.000000 15144.262624 88701.258873 0.000000 0.000000 0.000000 0.000000 0.000000 23359.609290 84686.377701 0.000000 0.000000 0.000000 0.000000 0.000000 25698.201572 62125.011056 0.000000 0.000000 0.000000 0.000000 0.000000 24765.434077 86145.848011 0.000000 0.000000 0.000000 0.000000 0.000000 7797.426194 54144.985407 0.000000 0.000000 0.000000 0.000000 0.000000 16500.127604 94950.160893 0.000000 0.000000 0.000000 0.000000 0.000000 44494.128466 142893.674382 0.000000 0.000000 0.000000 0.000000 0.000000 19149.469066 46129.984407 0.000000 0.000000 0.000000 0.000000 0.000000 7060.865418 25421.292695 0.000000 0.000000 0.000000 0.000000 0.000000 34917.408936 76112.305129 0.000000 0.000000 0.000000 0.000000 0.000000 25043.789097 64522.770349 0.000000 0.000000 0.000000 0.000000 0.000000 22006.008804 28172.822691 0.000000 0.000000 0.000000 0.000000 0.000000 63444.173704 126850.018953 0.000000 0.000000 0.000000 0.000000 0.000000 23884.455094 51476.354850 0.000000 0.000000 0.000000 0.000000 0.000000 6490.814166 22404.764636 0.000000 0.000000 0.000000 0.000000 0.000000 14917.280412 44878.327910 0.000000 0.000000 0.000000 0.000000 0.000000 8935.229688 23383.299362 0.000000 0.000000 0.000000 0.000000 0.000000 21980.239269 55976.746365 0.000000 0.000000 0.000000 0.000000 0.000000 26679.160256 66393.048305 0.000000 0.000000 0.000000 0.000000 0.000000 34205.186114 89582.601787 0.000000 0.000000 0.000000 0.000000 0.000000 23736.902970 61756.216399 0.000000 0.000000 0.000000 0.000000 0.000000 15217.218623 50172.884043 0.000000 0.000000 0.000000 0.000000 0.000000 7957.591650 43320.053821 0.000000 0.000000 0.000000 0.000000 0.000000 20126.441809 77338.103994 0.000000 0.000000 0.000000 0.000000 0.000000 12897.578130 39525.114337 0.000000 0.000000 0.000000 0.000000 0.000000 4270.732266 39868.618977 0.000000 0.000000 0.000000 0.000000 0.000000 4850.987815 8102.014443 0.000000 0.000000 0.000000 0.000000 0.000000 21562.391728 28604.770123 0.000000 0.000000 0.000000 0.000000 0.000000 13868.392313 44967.536577 0.000000 0.000000 0.000000 0.000000 0.000000 4501.285527 31691.879076 0.000000 0.000000 0.000000 0.000000 0.000000 5073.400055 31559.900983 0.000000 0.000000 0.000000 0.000000 0.000000 2206.998940 30996.441279 0.000000 0.000000 0.000000 0.000000 0.000000 1987.682546 15604.639891 0.000000 0.000000 0.000000 0.000000 0.000000 19668.358241 51268.468890 0.000000 0.000000 0.000000 0.000000 0.000000 28214.875233 79920.707547 0.000000 0.000000 0.000000 0.000000 0.000000 27424.764324 76874.708550 0.000000 0.000000 0.000000 0.000000 0.000000 22789.186603 45159.143742 0.000000 0.000000 0.000000 0.000000 0.000000 23442.603044 86410.177571 0.000000 0.000000 0.000000 0.000000 0.000000 7528.042064 41841.889613 0.000000 0.000000 0.000000 0.000000 0.000000 1364.499694 15975.048933 0.000000 0.000000 0.000000 0.000000 0.000000 17744.223392 43975.302812 0.000000 0.000000 0.000000 0.000000 0.000000 20245.585166 45321.443683 0.000000 0.000000 0.000000 0.000000 0.000000 1552.909550 0.000000 0.000000 0.000000 0.000000 0.000000 0.000000 1800.067207 27484.871522 0.000000 0.000000 0.000000 0.000000 0.000000 6300.531299 44433.617557 0.000000 0.000000 0.000000 0.000000 0.000000 17024.463493 90685.796812 0.000000 0.000000 0.000000 0.000000 0.000000 49359.447940 170911.659198 0.000000 0.000000 0.000000 0.000000 0.000000 49378.848751 135151.206915 0.000000 0.000000 0.000000 0.000000 0.000000 13178.872551 67162.664854 0.000000 0.000000 0.000000 0.000000 0.000000 23138.643052 124772.858937 0.000000 0.000000 0.000000 0.000000 0.000000 38231.657365 180858.447277 0.000000 0.000000 0.000000 0.000000 0.000000 20488.620109 80193.327176 0.000000 0.000000 0.000000 0.000000 0.000000 36692.102385 122060.089598 0.000000 0.000000 0.000000 0.000000 0.000000 20772.899332 82896.411782 0.000000 0.000000 0.000000 0.000000 0.000000 46665.217978 206165.884929 0.000000 0.000000 0.000000 0.000000 0.000000 98584.561353 414951.918425 0.000000 0.000000 0.000000 0.000000 0.000000 50541.721428 81610.082403 0.000000 0.000000 0.000000 0.000000 0.000000 39152.154845 79982.439892 0.000000 0.000000 0.000000 0.000000 0.000000 78544.375498 176903.458521 0.000000 0.000000 0.000000 0.000000 0.000000 86830.601626 128554.794131 0.000000 0.000000 0.000000 0.000000 0.000000 144107.609082 501119.228160 0.000000 0.000000 0.000000 0.000000 0.000000 82759.289142 552577.002991 0.000000 0.000000 0.000000 0.000000 0.000000 24529.569966 176739.347247 0.000000 0.000000 0.000000 0.000000 0.000000 6260.120072 37054.992630 46910.828485 58572.675432 70062.932345 19260.476312 0.000000 0.000000 0.000000 0.000000 0.000000 0.000000 0.000000 4718.111336 8730.348157 0.000000 0.000000 0.000000 0.000000 0.000000 0.000000 0.000000 0.000000 0.000000 0.000000 0.000000 0.000000 0.000000 0.000000 0.000000 5829.891169 0.000000 0.000000 0.000000 0.000000 0.000000 0.000000 0.000000 0.000000 0.000000 0.000000 0.000000 0.000000 0.000000 0.000000 0.000000 0.000000 0.000000 0.000000 0.000000 0.000000 0.000000 0.000000 0.000000 0.000000 0.000000 0.000000 0.000000 0.000000 0.000000 0.000000 0.000000 0.000000 0.000000 0.000000 0.000000 0.000000 0.000000 0.000000 0.000000 0.000000 0.000000 0.000000 0.000000 0.000000 0.000000 0.000000 0.000000 0.000000 0.000000 0.000000 0.000000 0.000000 0.000000 0.000000 0.000000 0.000000 0.000000 0.000000 0.000000 0.000000 0.000000 0.000000 0.000000 0.000000 0.000000 0.000000 0.000000 0.000000 0.000000 0.000000 0.000000 0.000000 0.000000 0.000000 0.000000 0.000000 0.000000 0.000000 0.000000 0.000000 0.000000 0.000000 0.000000 0.000000 0.000000 0.000000 0.000000 0.000000 0.000000 0.000000 0.000000 0.000000 0.000000 0.000000 0.000000 0.000000 0.000000 0.000000 0.000000 0.000000 0.000000 0.000000 0.000000 0.000000 0.000000 0.000000 0.000000 0.000000 0.000000 0.000000 0.000000 0.000000 0.000000 0.000000 0.000000 0.000000 0.000000 0.000000 0.000000 0.000000 0.000000 0.000000 0.000000 0.000000 0.000000 0.000000 0.000000 0.000000 0.000000 0.000000 0.000000 0.000000 0.000000 0.000000 0.000000 0.000000 0.000000 0.000000
</DataArray>
<DataArray type="Float64" Name="Velocity" NumberOfComponents="3" format="ascii">