<VTKFile type="PolyData">
<PolyData>
<Piece NumberOfPoints="1840" NumberOfVerts="1840" NumberOfLines="0" NumberOfStrips="0" NumberOfPolys="0">
<PointData>
<DataArray type="Float64" Name="Pressure" format="ascii">
 0.000000 0.000000 0.000000 0.000000 0.000000 0.000000 0.000000 0.000000 0.000000 0.000000 0.000000 0.000000 0.000000 0.000000 0.000000 0.000000 0.000000 0.000000 0.000000 0.000000 0.000000 0.000000 0.000000 0.000000 0.000000 0.000000 0.000000 0.000000 0.000000 0.000000 0.000000 0.000000 0.000000 0.000000 0.000000 0.000000 0.000000 0.000000 0.000000 0.000000 0.000000 0.000000 0.000000 0.000000 0.000000 0.000000 0.000000 0.000000 0.000000 0.000000 0.000000 0.000000 0.000000 0.000000 0.000000 0.000000 0.000000 0.000000 0.000000 0.000000 0.000000 0.000000 0.000000 0.000000 0.000000 0.000000 0.000000 0.000000 0.000000 0.000000 0.000000 0.000000 0.000000 0.000000 0.000000 0.000000 0.000000 0.000000 0.000000 0.000000 0.000000 0.000000 0.000000 0.000000 0.000000 0.000000 0.000000 0.000000 0.000000 0.000000 0.000000 0.000000 0.000000 0.000000 0.000000 0.000000 0.000000 0.000000 0.000000 0.000000 0.000000 0.000000 0.000000 0.000000 0.000000 0.000000 0.000000 0.000000 0.000000 0.000000 0.000000 0.000000 0.000000 0.000000 0.000000 0.000000 17850.301256 66884.782584 33293.484023 36023.891953 26466.239504 1157.709538 521.183777 0.000000 0.000000 0.000000 0.000000 0.000000 0.000000 0.000000 0.000000 0.000000 0.000000 0.000000 0.000000 0.000000 0.000000 0.000000 0.000000 0.000000 0.000000 0.000000 0.000000 0.000000 0.000000 0.000000 0.000000 0.000000 0.000000 0.000000 0.000000 0.000000 0.000000 0.000000 0.000000 0.000000 0.000000 0.000000 0.000000 0.000000 0.000000 0.000000 0.000000 0.000000 0.000000 0.000000 0.000000 0.000000 0.000000 0.000000 0.000000 0.000000 0.000000 54020.199486 205900.245647 52682.569867 90290.509967 63317.031130 0.000000 1495.521175 0.000000 0.000000 0.000000 0.000000 0.000000 0.000000 0.000000 0.000000 0.000000 0.000000 0.000000 0.000000 0.000000 0.000000 0.000000 0.000000 0.000000 0.000000 0.000000 0.000000 0.000000 0.000000 0.000000 0.000000 0.000000 0.000000 0.000000 0.000000 0.000000 0.000000 0.000000 0.000000 0.000000 0.000000 0.000000 0.000000 0.000000 0.000000 0.000000 0.000000 0.000000 0.000000 0.000000 0.000000 0.000000 0.000000 0.000000 0.000000 0.000000 0.000000 47032.858387 163238.540071 199164.539783 25871.370934 111731.118585 94251.531231 0.000000 76841.689936 33135.121906 16783.390440 36789.003032 19067.293883 18948.379665 46220.834586 0.000000 117724.507468 0.000000 28743.618395 2813.175640 24962.512082 0.000000 38008.312716 1739.827614 2170.189089 0.000000 121135.743066 63655.025648 29388.670576 0.000000 51106.730303 0.000000 60140.805940 92208.498067 0.000000 34183.542045 0.000000 0.000000 40476.689395 20709.487606 87549.208143 0.000000 0.000000 0.000000 0.000000 0.000000 0.000000 49544.807707 169521.591346 93506.343106 45542.476450 50604.631209 21304.483029 0.000000 0.000000 29057.994862 93377.172799 15385.535485 169508.295944 0.000000 51014.944535 18751.436668 43211.004448 0.000000 104432.630753 36242.223161 0.000000 0.000000 161971.676458 19580.022106 62753.416945 4147.552287 4376.968415 9460.672500 0.000000 0.000000 0.000000 0.000000 0.000000 84344.171467 0.000000 0.000000 0.000000 0.000000 0.000000 27032.351546 10457.151150 0.000000 0.000000 0.000000 0.000000 0.000000 0.000000 31469.707053 107807.772552 57699.121989 19232.777136 9591.266675 87251.731858 50830.611489 39885.511730 6452.618952 33683.423138 58862.634347 16003.994371 21498.161838 58016.906537 75801.286668 14353.761544 9328.302432 15223.280894 14939.210728 3796.359912 75118.960154 39140.501637 49419.956362 73645.217244 32463.768608 0.000000 37589.452445 48402.077870 7026.952394 0.000000 75741.421757 53486.156890 85982.477014 0.000000 0.000000 92153.491963 44913.047825 0.000000 0.000000 0.000000 91194.064763 0.000000 0.000000 0.000000 0.000000 0.000000 14920.753249 84698.627744 26273.993612 64620.527798 110416.188850 0.000000 21730.143629 30904.075589 49091.491700 66908.290149 28972.852476 152277.195238 18309.294762 41538.465742 15357.975182 43834.115628 54043.342704 19179.698642 76141.403378 62193.557005 22188.061476 60890.513386 14749.746493 12517.945177 118045.333317 39407.199926 50508.319212 1655.386076 0.000000 0.000000 3407.428078 3466.585262 88.379817 81796.136599 22044.698783 0.000000 20328.271736 0.000000 6623.997099 3858.523427 0.000000 0.000000 0.000000 0.000000 0.000000 0.000000 3347.158064 57003.298835 108897.389750 70705.445934 85314.519172 91815.536400 77290.398476 32292.596499 7729.215089 0.000000 95653.164933 53646.762830 10337.944341 122924.557944 74900.757634 73595.838785 12389.657341 14406.114033 0.000000 0.000000 43201.292326 43371.192009 19375.327405 0.000000 0.000000 0.000000 7479.417636 14596.595331 12548.194333 87964.176253 53345.374738 21411.364162 0.000000 0.000000 25712.154901 0.000000 0.000000 86299.403374 0.000000 0.000000 0.000000 0.000000 0.000000 0.000000 0.000000 0.000000 4542.223205 47868.013300 45201.118329 0.000000 205750.330244 54251.085447 91552.819042 84234.301283 38231.634007 22015.388737 19683.931141 0.000000 41624.334479 139471.053813 45106.624027 0.000000 57166.909926 26558.694658 67757.109139 22490.497855 51414.640810 29498.288073 53904.711077 43650.604803 33095.539488 22385.340140 0.000000 45795.918706 2096.393994 28894.165864 0.000000 0.000000 0.000000 13522.662065 0.000000 97929.406709 68150.910247 7494.047329 0.000000 43657.762716 0.000000 0.000000 0.000000 0.000000 0.000000 0.000000 32693.610120 106212.021616 74180.542109 28768.015712 47747.671512 98079.862765 29434.966505 44639.007545 82898.766184 52317.201374 29954.141744 116309.594601 74524.286838 98677.392509 7448.048866 15956.179615 10829.750512 10098.596219 41652.541027 7230.830647 55522.919311 96711.646827 73182.309558 46458.351923 0.000000 11246.350467 64116.202969 0.000000 54848.028447 63824.917765 450.057359 0.000000 0.000000 24853.044423 1324.608645 20939.788817 62252.394096 0.000000 57842.369905 0.000000 72960.811993 0.000000 0.000000 0.000000 0.000000 0.000000 29716.121010 53011.494918 49277.530504 0.000000 80096.221022 43977.520035 8228.269679 0.000000 0.000000 57621.386394 66435.224458 26267.618708 0.000000 0.000000 0.000000 6902.716128 0.000000 11964.946316 20739.025665 90460.939060 42966.962724 63440.126665 0.000000 8815.073143 11418.418851 0.000000 0.000000 0.000000 59634.473965 0.000000 35926.561765 0.000000 53373.987707 0.000000 30698.177199 0.000000 0.000000 0.000000 0.000000 4354.047945 54311.880018 0.000000 0.000000 0.000000 0.000000 0.000000 3486.996342 797.227609 0.000000 0.000000 35785.980241 45142.922936 5357.446130 138105.093216 12458.574583 37646.997286 4123.397849 0.000000 38851.306793 0.000000 8409.613700 5244.156715 691.631932 32810.608346 48292.478425 70599.542634 43337.336664 31916.455726 58346.307180 54145.556756 0.000000 33219.056768 18222.694940 51385.296124 37360.970473 4279.028864 40013.641437 110396.985648 5579.665639 0.000000 25751.545781 14757.490653 88224.807561 0.000000 0.000000 0.000000 0.000000 0.000000 0.000000 0.000000 0.000000 0.000000 5325.524284 32176.536361 339843.903780 115263.360950 0.000000 0.000000 125227.335660 0.000000 0.000000 0.000000 0.000000 0.000000 0.000000 13886.242433 0.000000 16668.924619 0.000000 0.000000 45170.639961 0.000000 11699.038944 0.000000 22758.924654 80567.790060 28149.878328 0.000000 64505.527369 0.000000 20229.090962 0.000000 18552.289691 0.000000 42225.418423 21009.732211 0.000000 33219.993764 11182.555298 30085.318160 45290.288099 0.000000 0.000000 0.000000 0.000000 0.000000 0.000000 0.000000 8719.754195 38426.235820 268582.555206 244511.087114 0.000000 0.000000 12473.203153 0.000000 17973.396693 123485.744663 0.000000 491.030285 119152.745651 343883.113061 43344.200635 70955.845364 0.000000 0.000000 0.000000 0.000000 0.000000 83667.805796 27469.520142 0.000000 78123.317091 73682.670747 107568.885470 60201.376834 18118.557298 1945.999193 56684.537577 0.000000 0.000000 30432.136986 17887.120885 0.000000 22934.619212 103.383570 9919.842509 15369.163864 0.000000 0.000000 0.000000 0.000000 0.000000 0.000000 14766.029867 73729.973690 238738.526323 281458.199322 0.000000 0.000000 0.000000 0.000000 0.000000 0.000000 0.000000 66261.461586 43120.372262 46203.630178 0.000000 0.000000 0.000000 167968.195240 0.000000 0.000000 6250.744772 0.000000 0.000000 0.000000 112812.110627 0.000000 0.000000 0.000000 0.000000 0.000000 30553.037474 2840.359759 42574.260108 17319.405746 46658.388840 0.000000 0.000000 20384.424971 0.000000 8801.283668 31257.622017 0.000000 0.000000 0.000000 0.000000 0.000000 21023.403630 94974.767503 0.000000 0.000000 0.000000 0.000000 0.000000 0.000000 0.000000 73685.707868 0.000000 0.000000 56093.267872 0.000000 109827.524294 0.000000 68343.429615 36385.222377 197044.968420 242157.184540 117615.212940 0.000000 19494.288702 110256.915373 0.000000 0.000000 0.000000 18169.394157 0.000000 0.000000 0.000000 42110.945025 91265.031564 17804.768007 0.000000 23549.399644 30028.293747 0.000000 47998.592318 0.000000 71568.451206 0.000000 0.000000 0.000000 0.000000 0.000000 21163.515711 55088.782241 25059.413909 0.000000 133282.802730 173152.439886 0.000000 0.000000 0.000000 0.000000 0.000000 0.000000 0.000000 0.000000 0.000000 0.000000 81898.759376 0.000000 0.000000 0.000000 102748.041885 136506.819863 500551.524356 115684.749499 100702.046044 0.000000 150555.091835 298940.912496 0.000000 0.000000 0.000000 7917.489107 0.000000 19577.575611 40428.654584 0.000000 0.000000 21302.155524 36731.466652 13109.812098 0.000000 0.000000 0.000000 0.000000 0.000000 0.000000 5996.394026 10080.588980 0.000000 0.000000 77095.818990 0.000000 0.000000 0.000000 51246.194046 88356.172560 82885.676396 0.000000 0.000000 0.000000 296672.318678 0.000000 0.000000 0.000000 0.000000 0.000000 0.000000 0.000000 0.000000 0.000000 0.000000 0.000000 237364.945464 419558.057168 0.000000 63946.740125 192297.763532 117667.168892 13755.519644 0.000000 0.000000 0.000000 0.000000 0.000000 51837.231874 0.000000 74807.712041 0.000000 0.000000 0.000000 0.000000 0.000000 8559.008516 47438.200785 0.000000 0.000000 0.000000 57829.425032 0.000000 0.000000 0.000000 0.000000 0.000000 0.000000 0.000000 0.000000 297052.595715 0.000000 0.000000 0.000000 0.000000 67629.376421 0.000000 0.000000 0.000000 0.000000 0.000000 0.000000 0.000000 126875.587230 0.000000 0.000000 0.000000 0.000000 0.000000 0.000000 0.000000 0.000000 0.000000 0.000000 2646.275449 0.000000 36060.048339 0.000000 0.000000 0.000000 0.000000 0.000000 9962.073163 87713.127108 0.000000 0.000000 0.000000 0.000000 2920.267971 0.000000 0.000000 0.000000 0.000000 0.000000 0.000000 0.000000 0.000000 0.000000 0.000000 0.000000 0.000000 0.000000 0.000000 0.000000 0.000000 0.000000 0.000000 0.000000 0.000000 0.000000 0.000000 0.000000 0.000000 0.000000 169353.849864 0.000000 236346.921595 77769.654404 11130.488940 62729.589141 0.000000 32510.854255 0.000000 0.000000 0.000000 0.000000 0.000000 0.000000 16707.345635 85139.626940 0.000000 0.000000 0.000000 0.000000 272807.928529 272807.928529 0.000000 0.000000 0.000000 0.000000 0.000000 0.000000 0.000000 0.000000 0.000000 0.000000 0.000000 0.000000 0.000000 0.000000 0.000000 0.000000 0.000000 0.000000 0.000000 0.000000 2387.580161 0.000000 0.000000 0.000000 0.000000 0.000000 0.000000 0.000000 70698.990802 36664.761991 0.000000 0.000000 3840.042051 0.000000 0.000000 0.000000 0.000000 0.000000 34256.584904 98143.599937 0.000000 0.000000 0.000000 0.000000 0.000000 0.000000 0.000000 0.000000 0.000000 0.000000 0.000000 0.000000 87844.259575 0.000000 67757.450896 71470.640790 0.000000 0.000000 0.000000 0.000000 0.000000 0.000000 0.000000 0.000000 0.000000 0.000000 0.000000 0.000000 0.000000 0.000000 0.000000 0.000000 0.000000 0.000000 0.000000 0.000000 249193.474835 0.000000 85118.564510 0.000000 0.000000 0.000000 0.000000 0.000000 51305.267519 128150.915121 0.000000 0.000000 0.000000 0.000000 0.000000 41159.761928 64244.903322 0.000000 0.000000 0.000000 0.000000 0.000000 59865.811232 122949.874174 0.000000 0.000000 0.000000 0.000000 0.000000 38395.772048 115872.575444 0.000000 0.000000 0.000000 0.000000 0.000000 4861.995432 13947.735349 0.000000 0.000000 0.000000 0.000000 0.000000 34305.959425 71578.128813 0.000000 0.000000 0.000000 0.000000 0.000000 50193.807906 113386.071181 0.000000 0.000000 0.000000 0.000000 0.000000 18843.649896 37215.777340 0.000000 0.000000 0.000000 0.000000 0.000000 53116.511900 90870.838298 0.000000 0.000000 0.000000 0.000000 0.000000 37194.049972 52547.346774 0.000000 0.000000 0.000000 0.000000 0.000000 22389.097362 47156.107466 0.000000 0.000000 0.000000 0.000000 0.000000 30309.339482 65689.549952 0.000000 0.000000 0.000000 0.000000 0.000000 18532.357561 36116.568957 0.000000 0.000000 0.000000 0.000000 0.000000 52135.986143 120188.685866 0.000000 0.000000 0.000000 0.000000 0.000000 26259.797490 43034.402699 0.000000 0.000000 0.000000 0.000000 0.000000 14194.130062 72208.036326 0.000000 0.000000 0.000000 0.000000 0.000000 11002.977171 42366.219635 0.000000 0.000000 0.000000 0.000000 0.000000 4139.902747 19382.387245 0.000000 0.000000 0.000000 0.000000 0.000000 13955.609694 82038.215197 0.000000 0.000000 0.000000 0.000000 0.000000 24214.090487 70578.716650 0.000000 0.000000 0.000000 0.000000 0.000000 14874.019604 29342.151519 0.000000 0.000000 0.000000 0.000000 0.000000 30055.647119 89178.370786 0.000000 0.000000 0.000000 0.000000 0.000000 23433.174521 66537.995269 0.000000 0.000000 0.000000 0.000000 0.000000 21216.798961 57350.033670 0.000000 0.000000 0.000000 0.000000 0.000000 21485.633329 80680.916268 0.000000 0.000000 0.000000 0.000000 0.000000 9690.457817 53182.865442 0.000000 0.000000 0.000000 0.000000 0.000000 5299.007640 29985.679422 0.000000 0.000000 0.000000 0.000000 0.000000 37963.980374 62246.041692 0.000000 0.000000 0.000000 0.000000 0.000000 58755.062820 109206.441000 0.000000 0.000000 0.000000 0.000000 0.000000 45320.071843 88121.383987 0.000000 0.000000 0.000000 0.000000 0.000000 22577.189442 29464.063887 0.000000 0.000000 0.000000 0.000000 0.000000 6506.455066 28954.955344 0.000000 0.000000 0.000000 0.000000 0.000000 16541.344749 122207.625528 0.000000 0.000000 0.000000 0.000000 0.000000 18678.372322 73963.773689 0.000000 0.000000 0.000000 0.000000 0.000000 52942.705767 150144.294769 0.000000 0.000000 0.000000 0.000000 0.000000 63692.791069 196347.546061 0.000000 0.000000 0.000000 0.000000 0.000000 15803.984738 61239.908526 0.000000 0.000000 0.000000 0.000000 0.000000 11562.404543 45195.087016 0.000000 0.000000 0.000000 0.000000 0.000000 22915.828838 82804.471689 0.000000 0.000000 0.000000 0.000000 0.000000 32577.662018 102549.859211 0.000000 0.000000 0.000000 0.000000 0.000000 23072.254557 85325.955575 0.000000 0.000000 0.000000 0.000000 0.000000 8959.106741 34852.637226 0.000000 0.000000 0.000000 0.000000 0.000000 21889.533460 40585.684982 0.000000 0.000000 0.000000 0.000000 0.000000 44006.045311 129605.368114 0.000000 0.000000 0.000000 0.000000 0.000000 30802.051064 154657.495343 0.000000 0.000000 0.000000 0.000000 0.000000 29874.794464 109257.076221 0.000000 0.000000 0.000000 0.000000 0.000000 16180.808996 69667.832242 0.000000 0.000000 0.000000 0.000000 0.000000 17655.699715 75786.888476 0.000000 0.000000 0.000000 0.000000 0.000000 23436.156141 90121.393994 0.000000 0.000000 0.000000 0.000000 0.000000 8983.914536 71978.519537 0.000000 0.000000 0.000000 0.000000 0.000000 11119.783065 70245.935386 0.000000 0.000000 0.000000 0.000000 0.000000 9500.708972 36251.479455 0.000000 0.000000 0.000000 0.000000 0.000000 4331.489734 35035.135278 0.000000 0.000000 0.000000 0.000000 0.000000 9126.851536 54585.153885 0.000000 0.000000 0.000000 0.000000 0.000000 9573.635233 54578.365629 0.000000 0.000000 0.000000 0.000000 0.000000 2663.846800 0.000000 0.000000 0.000000 0.000000 0.000000 0.000000 20645.272785 69494.413808 0.000000 0.000000 0.000000 0.000000 0.000000 20751.563721 103974.275350 0.000000 0.000000 0.000000 0.000000 0.000000 12570.834612 80084.126963 0.000000 0.000000 0.000000 0.000000 0.000000 9002.450574 35651.454980 0.000000 0.000000 0.000000 0.000000 0.000000 8375.163138 67563.299432 0.000000 0.000000 0.000000 0.000000 0.000000 12108.459701 114958.258919 0.000000 0.000000 0.000000 0.000000 0.000000 13590.103333 95647.623210 0.000000 0.000000 0.000000 0.000000 0.000000 5962.030744 46668.147189 0.000000 0.000000 0.000000 0.000000 0.000000 225.647816 0.000000 0.000000 0.000000 0.000000 0.000000 0.000000 852.351723 5309.232540 0.000000 0.000000 0.000000 0.000000 0.000000 0.000000 0.000000 0.000000 0.000000 0.000000 0.000000 0.000000 16320.297649 10180.702792 0.000000 0.000000 0.000000 0.000000 0.000000 27463.916759 116767.548607 0.000000 0.000000 0.000000 0.000000 0.000000 9202.885966 102046.252340 0.000000 0.000000 0.000000 0.000000 0.000000 0.000000 0.000000 0.000000 0.000000 0.000000 0.000000 0.000000 3909.879867 6338.457244 0.000000 0.000000 0.000000 0.000000 0.000000 11293.811951 99219.072516 0.000000 0.000000 0.000000 0.000000 0.000000 11081.130648 91810.323745 0.000000 0.000000 0.000000 0.000000 0.000000 16324.922680 132954.085114 0.000000 0.000000 0.000000 0.000000 0.000000 13259.505572 100422.343199 0.000000 0.000000 0.000000 0.000000 0.000000 28148.870887 175427.835011 0.000000 0.000000 0.000000 0.000000 0.000000 18383.324135 74319.272024 0.000000 0.000000 0.000000 0.000000 0.000000 34840.455006 129469.730972 0.000000 0.000000 0.000000 0.000000 0.000000 94165.879614 325209.978100 0.000000 0.000000 0.000000 0.000000 0.000000 38389.235398 104378.140052 0.000000 0.000000 0.000000 0.000000 0.000000 2271.521610 7926.736735 0.000000 48942.966252 43316.452933 0.000000 40651.994394 21213.466161 22404.052755 18676.276379 0.000000 0.000000 0.000000 0.000000 0.000000 0.000000 0.000000 0.000000 0.000000 0.000000 0.000000 0.000000 0.000000 0.000000 0.000000 0.000000 0.000000 0.000000 0.000000 0.000000 0.000000 0.000000 0.000000 0.000000 0.000000 0.000000 0.000000 0.000000 0.000000 0.000000 0.000000 0.000000 0.000000 0.000000 0.000000 0.000000 0.000000 0.000000 0.000000 0.000000 0.000000 0.000000 0.000000 0.000000 0.000000 0.000000 0.000000 0.000000 0.000000 0.000000 0.000000 0.000000 0.000000 0.000000 0.000000 0.000000 0.000000 0.000000 0.000000 0.000000 0.000000 0.000000 0.000000 0.000000 0.000000 0.000000 0.000000 0.000000 0.000000 0.000000 0.000000 0.000000 0.000000 0.000000 0.000000 0.000000 0.000000 0.000000 0.000000 0.000000 0.000000 0.000000 0.000000 0.000000 0.000000 0.000000 0.000000 0.000000 0.000000 0.000000 0.000000 0.000000 0.000000 0.000000 0.000000 0.000000 0.000000 0.000000 0.000000 0.000000 0.000000 0.000000 0.000000 0.000000 0.000000 0.000000 0.000000 0.000000 0.000000 0.000000 0.000000 0.000000 0.000000 0.000000 0.000000 0.000000 0.000000 0.000000 0.000000 0.000000 0.000000 0.000000 0.000000 0.000000 0.000000 0.000000 0.000000 0.000000 0.000000 0.000000 0.000000 0.000000 0.000000 0.000000 0.000000 0.000000 0.000000 0.000000 0.000000 0.000000 0.000000 0.000000 0.000000 0.000000 0.000000 0.000000 0.000000 0.000000 0.000000 0.000000 0.000000 0.000000 0.000000 0.000000 0.000000 0.000000 0.000000 0.000000 0.000000
</DataArray>
<DataArray type="Float64" Name="Velocity" NumberOfComponents="3" format="ascii">