<VTKFile type="PolyData">
<PolyData>
<Piece NumberOfPoints="1840" NumberOfVerts="1840" NumberOfLines="0" NumberOfStrips="0" NumberOfPolys="0">
<PointData>
<DataArray type="Float64" Name="Pressure" format="ascii">
 0.000000 0.000000 0.000000 0.000000 0.000000 0.000000 0.000000 0.000000 0.000000 0.000000 0.000000 0.000000 0.000000 0.000000 0.000000 0.000000 0.000000 0.000000 0.000000 0.000000 0.000000 0.000000 0.000000 0.000000 0.000000 0.000000 0.000000 0.000000 0.000000 0.000000 0.000000 0.000000 0.000000 0.000000 0.000000 0.000000 0.000000 0.000000 0.000000 0.000000 0.000000 0.000000 0.000000 0.000000 0.000000 0.000000 0.000000 0.000000 0.000000 0.000000 0.000000 0.000000 0.000000 0.000000 0.000000 0.000000 0.000000 0.000000 0.000000 0.000000 0.000000 0.000000 0.000000 0.000000 0.000000 0.000000 0.000000 0.000000 0.000000 0.000000 0.000000 0.000000 0.000000 0.000000 0.000000 0.000000 0.000000 0.000000 0.000000 0.000000 0.000000 0.000000 0.000000 0.000000 0.000000 0.000000 0.000000 0.000000 0.000000 0.000000 0.000000 0.000000 0.000000 0.000000 0.000000 0.000000 0.000000 0.000000 0.000000 0.000000 0.000000 0.000000 0.000000 0.000000 0.000000 0.000000 0.000000 0.000000 0.000000 0.000000 0.000000 0.000000 0.000000 0.000000 0.000000 0.000000 0.000000 0.000000 0.000000 9337.342387 35796.659290 17478.146579 1291.229632 15259.924856 23997.836779 33476.914283 15393.821560 0.000000 0.000000 0.000000 0.000000 0.000000 0.000000 0.000000 0.000000 0.000000 0.000000 0.000000 0.000000 0.000000 0.000000 0.000000 0.000000 0.000000 0.000000 0.000000 0.000000 0.000000 0.000000 0.000000 0.000000 0.000000 0.000000 0.000000 0.000000 0.000000 0.000000 0.000000 0.000000 0.000000 0.000000 0.000000 0.000000 0.000000 0.000000 0.000000 0.000000 0.000000 0.000000 0.000000 0.000000 0.000000 0.000000 0.000000 0.000000 0.000000 0.000000 134184.718777 96964.355803 0.000000 123959.229383 154586.575919 131166.620817 53615.382168 0.000000 0.000000 0.000000 0.000000 0.000000 0.000000 0.000000 0.000000 0.000000 0.000000 0.000000 0.000000 0.000000 0.000000 0.000000 0.000000 0.000000 0.000000 0.000000 0.000000 0.000000 0.000000 0.000000 0.000000 0.000000 0.000000 0.000000 0.000000 0.000000 0.000000 0.000000 0.000000 0.000000 0.000000 0.000000 0.000000 0.000000 0.000000 0.000000 0.000000 0.000000 0.000000 0.000000 0.000000 0.000000 0.000000 7558.049384 0.000000 97550.898913 299854.958638 70298.407849 0.000000 89438.740897 0.000000 0.000000 0.000000 22517.593522 0.000000 51634.610333 9867.707594 75477.563016 0.000000 0.000000 0.000000 61230.496119 0.000000 12413.411952 0.000000 0.000000 0.000000 341296.537428 33900.214095 274040.739203 117622.252184 15200.815332 109774.353473 0.000000 0.000000 0.000000 71591.549476 0.000000 65494.106722 0.000000 0.000000 0.000000 0.000000 0.000000 0.000000 0.000000 0.000000 0.000000 0.000000 20812.614261 76715.136728 136258.648512 111156.234257 0.000000 0.000000 0.000000 0.000000 0.000000 0.000000 60021.571649 0.000000 0.000000 0.000000 0.000000 54627.057001 43594.163338 0.000000 0.000000 71934.583130 34245.771032 421503.225149 0.000000 152488.142055 0.000000 55737.381581 0.000000 0.000000 24461.780755 0.000000 0.000000 0.000000 51861.502351 0.000000 0.000000 0.000000 0.000000 0.000000 24147.329353 0.000000 0.000000 0.000000 0.000000 0.000000 0.000000 0.000000 4650.883007 19226.415072 0.000000 55843.964000 0.000000 1779.950231 0.000000 0.000000 0.000000 0.000000 0.000000 57959.404936 0.000000 0.000000 0.000000 0.000000 78328.697810 143961.263035 6710.072234 157622.713804 180366.648663 80989.400886 149547.479602 0.000000 0.000000 23478.372941 145477.051730 29068.003995 0.000000 4521.933646 4958.633340 0.000000 377135.716674 175387.968110 0.000000 0.000000 0.000000 0.000000 0.000000 0.000000 0.000000 0.000000 0.000000 0.000000 0.000000 0.000000 0.000000 0.000000 156303.603095 0.000000 0.000000 36005.956370 0.000000 0.000000 0.000000 26008.769744 0.000000 0.000000 0.000000 49236.014043 0.000000 0.000000 103224.558508 0.000000 33087.590817 0.000000 0.000000 0.000000 0.000000 207490.046775 0.000000 0.000000 0.000000 0.000000 0.000000 0.000000 364473.347047 0.000000 0.000000 0.000000 0.000000 300880.191257 0.000000 18473.274240 130774.546067 118221.729514 0.000000 0.000000 0.000000 0.000000 0.000000 0.000000 17693.654921 0.000000 228655.988447 0.000000 0.000000 0.000000 171685.106791 84919.470247 0.000000 0.000000 10491.937545 71433.815693 0.000000 0.000000 0.000000 0.000000 167457.363823 73933.024805 10876.616996 0.000000 241076.240774 148964.853812 0.000000 0.000000 0.000000 0.000000 0.000000 0.000000 0.000000 36597.930531 0.000000 11582.709079 162295.887341 0.000000 528120.165637 0.000000 57359.242711 0.000000 190303.828479 0.000000 0.000000 0.000000 0.000000 0.000000 0.000000 0.000000 61210.035877 121989.666163 26087.502385 0.000000 0.000000 0.000000 0.000000 0.000000 48223.326099 0.000000 71967.822126 90612.673530 0.000000 103083.133924 0.000000 4113.779913 0.000000 0.000000 0.000000 0.000000 115685.007958 73847.341422 53644.920074 0.000000 0.000000 393626.699542 146625.585952 0.000000 0.000000 34649.253807 67677.600964 57598.954920 902.236257 0.000000 0.000000 0.000000 0.000000 0.000000 0.000000 114699.029084 0.000000 0.000000 0.000000 0.000000 0.000000 0.000000 35800.761484 167112.245797 150276.040188 233703.080653 41760.778872 0.000000 13587.910440 0.000000 5441.691729 114493.609217 7926.746674 0.000000 9783.364119 0.000000 255977.991584 0.000000 0.000000 0.000000 0.000000 0.000000 14098.692151 208296.699934 0.000000 0.000000 0.000000 0.000000 112639.534442 0.000000 0.000000 0.000000 0.000000 0.000000 0.000000 0.000000 0.000000 0.000000 81659.350066 0.000000 0.000000 57242.363799 0.000000 0.000000 0.000000 0.000000 0.000000 0.000000 72159.586150 417241.182314 0.000000 0.000000 110024.513786 0.000000 50562.631639 0.000000 0.000000 0.000000 120666.674568 24585.997092 72874.430233 0.000000 11255.097538 0.000000 0.000000 0.000000 197114.396357 0.000000 0.000000 80684.391067 0.000000 0.000000 0.000000 44878.298168 0.000000 7679.323416 0.000000 0.000000 104233.027565 52940.702334 0.000000 0.000000 0.000000 115366.102043 26967.479787 45568.500484 49132.488451 0.000000 170168.602024 0.000000 0.000000 0.000000 0.000000 0.000000 66610.365190 354916.830486 0.000000 150981.242168 0.000000 48637.401110 0.000000 17176.898839 246331.285262 0.000000 0.000000 0.000000 34047.400369 46385.483063 0.000000 0.000000 0.000000 16810.026675 375586.738382 0.000000 0.000000 0.000000 0.000000 0.000000 0.000000 197673.537070 0.000000 0.000000 0.000000 61323.017640 0.000000 0.000000 0.000000 0.000000 0.000000 48453.563133 0.000000 0.000000 0.000000 0.000000 0.000000 0.000000 0.000000 0.000000 0.000000 0.000000 13925.307890 4805.521400 0.000000 0.000000 35671.106694 223336.943337 0.000000 95031.528248 0.000000 0.000000 0.000000 39430.621429 0.000000 0.000000 0.000000 0.000000 0.000000 0.000000 0.000000 0.000000 0.000000 0.000000 49075.093874 104687.835455 0.000000 0.000000 0.000000 0.000000 41450.353668 0.000000 0.000000 0.000000 0.000000 0.000000 0.000000 115629.280957 0.000000 0.000000 20326.863290 0.000000 0.000000 0.000000 0.000000 0.000000 0.000000 0.000000 0.000000 0.000000 53766.684659 0.000000 0.000000 0.000000 0.000000 433887.439040 0.000000 274507.724946 0.000000 1867.823045 0.000000 0.000000 39998.412325 15330.203728 0.000000 0.000000 0.000000 3542.043208 2905.009655 0.000000 52325.802888 0.000000 60406.320244 0.000000 0.000000 43441.917291 169459.413233 0.000000 0.000000 0.000000 0.000000 0.000000 0.000000 95139.231714 0.000000 0.000000 0.000000 0.000000 229935.813097 0.000000 0.000000 0.000000 0.000000 0.000000 16418.591731 62817.784283 0.000000 0.000000 16361.348765 9722.848405 0.000000 0.000000 0.000000 27184.777937 0.000000 0.000000 31286.869446 0.000000 0.000000 0.000000 0.000000 364711.899194 7710.636267 363893.882487 0.000000 0.000000 3871.939971 160676.235976 0.000000 0.000000 156922.173037 42305.444320 0.000000 20343.321208 16854.714484 0.000000 0.000000 0.000000 0.000000 200431.949339 0.000000 0.000000 0.000000 0.000000 0.000000 0.000000 0.000000 0.000000 0.000000 0.000000 78692.824850 342995.710164 0.000000 0.000000 0.000000 0.000000 0.000000 0.000000 0.000000 0.000000 14719.428971 86824.353691 78136.771155 0.000000 0.000000 0.000000 0.000000 0.000000 142810.253363 0.000000 0.000000 0.000000 96624.576769 0.000000 414398.140819 525276.188710 0.000000 24367.300061 94531.502883 0.000000 0.000000 74372.328314 199280.202813 0.000000 0.000000 0.000000 0.000000 0.000000 0.000000 0.000000 0.000000 0.000000 0.000000 0.000000 0.000000 0.000000 36609.438723 47094.387369 0.000000 0.000000 18432.481178 0.000000 63957.684375 17515.544169 0.000000 0.000000 27237.459942 0.000000 75705.376121 0.000000 698003.171270 0.000000 0.000000 0.000000 54474.709367 75733.856205 0.000000 42229.070059 0.000000 27826.369066 0.000000 48833.037896 0.000000 213210.198764 0.000000 0.000000 0.000000 55063.007980 0.000000 0.000000 87835.862549 176490.929942 0.000000 0.000000 344779.475764 0.000000 3523.595842 0.000000 0.000000 0.000000 0.000000 0.000000 3417.633589 0.000000 0.000000 116438.167800 0.000000 0.000000 284550.948900 0.000000 0.000000 0.000000 0.000000 0.000000 0.000000 0.000000 0.000000 0.000000 0.000000 0.000000 0.000000 0.000000 28500.178140 189967.103750 0.000000 0.000000 133426.767620 28726.369915 171330.355348 0.000000 0.000000 5038.064637 0.000000 26025.985838 0.000000 0.000000 0.000000 0.000000 0.000000 0.000000 105649.455226 0.000000 0.000000 0.000000 0.000000 0.000000 0.000000 0.000000 9642.981948 32182.327810 7505.223673 0.000000 0.000000 0.000000 0.000000 0.000000 8984.977474 195004.352417 0.000000 178368.186124 0.000000 0.000000 0.000000 0.000000 70023.037303 0.000000 2419.833658 0.000000 0.000000 0.000000 0.000000 60123.802971 82856.697277 0.000000 0.000000 0.000000 0.000000 0.000000 55677.490083 0.000000 55402.397013 0.000000 0.000000 35893.789437 0.000000 63504.204755 0.000000 0.000000 11818.667815 0.000000 0.000000 0.000000 0.000000 0.000000 19839.984444 137834.581188 0.000000 0.000000 39474.529446 0.000000 0.000000 57145.755775 0.000000 0.000000 0.000000 0.000000 145333.771196 0.000000 269715.829209 0.000000 8858.928831 0.000000 0.000000 0.000000 162950.180139 0.000000 0.000000 0.000000 0.000000 0.000000 0.000000 48025.621369 96285.003792 0.000000 28525.138294 0.000000 0.000000 0.000000 0.000000 0.000000 0.000000 124022.263953 0.000000 0.000000 87600.383043 0.000000 0.000000 0.000000 0.000000 0.000000 10204.955534 57774.874683 7950.515499 0.000000 0.000000 0.000000 94844.127497 94844.127497 0.000000 0.000000 0.000000 0.000000 0.000000 215190.441373 0.000000 40452.767464 0.000000 165771.786567 0.000000 0.000000 257800.283802 67596.120127 0.000000 2890.183916 268475.347050 0.000000 0.000000 0.000000 180528.147252 0.000000 0.000000 174547.420845 0.000000 0.000000 0.000000 0.000000 0.000000 199105.406008 218785.707513 63413.429191 3312.936134 0.000000 0.000000 0.000000 0.000000 0.000000 26691.501695 81380.287646 29608.397194 0.000000 0.000000 0.000000 35266.485282 0.000000 0.000000 13186.612996 0.000000 0.000000 127338.602986 0.000000 0.000000 0.000000 0.000000 0.000000 0.000000 0.000000 0.000000 53803.758685 0.000000 0.000000 76745.110801 0.000000 349700.851969 11978.341858 89359.179566 0.000000 99086.263969 0.000000 0.000000 0.000000 0.000000 0.000000 0.000000 0.000000 20506.615746 0.000000 10110.317593 0.000000 0.000000 0.000000 0.000000 0.000000 65121.145240 142566.997693 0.000000 0.000000 0.000000 0.000000 0.000000 20086.184561 0.000000 0.000000 0.000000 0.000000 0.000000 0.000000 26583.184553 13701.427810 0.000000 0.000000 0.000000 0.000000 0.000000 49903.758452 111532.266311 0.000000 0.000000 0.000000 0.000000 0.000000 20227.612988 14296.752656 0.000000 0.000000 0.000000 0.000000 0.000000 57264.088192 88491.125500 0.000000 0.000000 0.000000 0.000000 0.000000 49485.050121 221111.492276 0.000000 0.000000 0.000000 0.000000 0.000000 9094.196849 71996.502261 0.000000 0.000000 0.000000 0.000000 0.000000 0.000000 2363.248987 0.000000 0.000000 0.000000 0.000000 0.000000 2601.067761 36772.582714 0.000000 0.000000 0.000000 0.000000 0.000000 3824.922608 45093.607508 0.000000 0.000000 0.000000 0.000000 0.000000 7678.336208 92895.077035 0.000000 0.000000 0.000000 0.000000 0.000000 17528.363234 259104.726625 0.000000 0.000000 0.000000 0.000000 0.000000 10057.882838 95069.393607 0.000000 0.000000 0.000000 0.000000 0.000000 336.898554 0.000000 0.000000 0.000000 0.000000 0.000000 0.000000 24360.661021 39557.685171 0.000000 0.000000 0.000000 0.000000 0.000000 51141.135138 58410.502138 0.000000 0.000000 0.000000 0.000000 0.000000 12489.679054 36066.965515 0.000000 0.000000 0.000000 0.000000 0.000000 2503.101599 59218.537305 0.000000 0.000000 0.000000 0.000000 0.000000 13794.731763 43475.777431 0.000000 0.000000 0.000000 0.000000 0.000000 35653.909356 167907.632412 0.000000 0.000000 0.000000 0.000000 0.000000 32448.455243 229720.374726 0.000000 0.000000 0.000000 0.000000 0.000000 10934.103574 29270.574107 0.000000 0.000000 0.000000 0.000000 0.000000 4557.152084 0.000000 0.000000 0.000000 0.000000 0.000000 0.000000 10228.316655 54442.810307 0.000000 0.000000 0.000000 0.000000 0.000000 11176.595294 183278.702685 0.000000 0.000000 0.000000 0.000000 0.000000 16548.356018 283868.932597 0.000000 0.000000 0.000000 0.000000 0.000000 8154.440850 39621.691299 0.000000 0.000000 0.000000 0.000000 0.000000 17533.335432 23394.934210 0.000000 0.000000 0.000000 0.000000 0.000000 5840.131342 0.000000 0.000000 0.000000 0.000000 0.000000 0.000000 0.000000 0.000000 0.000000 0.000000 0.000000 0.000000 0.000000 0.000000 0.000000 0.000000 0.000000 0.000000 0.000000 0.000000 6195.088667 60770.492307 0.000000 0.000000 0.000000 0.000000 0.000000 4827.812085 42761.092956 0.000000 0.000000 0.000000 0.000000 0.000000 428.883163 0.000000 0.000000 0.000000 0.000000 0.000000 0.000000 10207.462347 9050.889194 0.000000 0.000000 0.000000 0.000000 0.000000 5754.758240 0.000000 0.000000 0.000000 0.000000 0.000000 0.000000 0.000000 0.000000 0.000000 0.000000 0.000000 0.000000 0.000000 6930.101110 0.000000 0.000000 0.000000 0.000000 0.000000 0.000000 6191.081390 49917.115556 0.000000 0.000000 0.000000 0.000000 0.000000 15415.249133 130668.995901 0.000000 0.000000 0.000000 0.000000 0.000000 61056.247287 245603.895138 0.000000 0.000000 0.000000 0.000000 0.000000 58961.756478 170020.593681 0.000000 0.000000 0.000000 0.000000 0.000000 23429.257979 67458.126928 0.000000 0.000000 0.000000 0.000000 0.000000 11813.032539 94272.318867 0.000000 0.000000 0.000000 0.000000 0.000000 22786.828898 56917.581877 0.000000 0.000000 0.000000 0.000000 0.000000 64504.853156 94081.504249 0.000000 0.000000 0.000000 0.000000 0.000000 54787.062564 170087.034101 0.000000 0.000000 0.000000 0.000000 0.000000 52383.038390 110287.632431 0.000000 0.000000 0.000000 0.000000 0.000000 65644.387783 102645.018779 0.000000 0.000000 0.000000 0.000000 0.000000 21693.242502 0.000000 0.000000 0.000000 0.000000 0.000000 0.000000 0.000000 0.000000 0.000000 0.000000 0.000000 0.000000 0.000000 1788.150310 5090.567057 0.000000 0.000000 0.000000 0.000000 0.000000 896.896721 10619.888626 0.000000 0.000000 0.000000 0.000000 0.000000 0.000000 0.000000 0.000000 0.000000 0.000000 0.000000 0.000000 1258.004174 0.000000 0.000000 0.000000 0.000000 0.000000 0.000000 5498.620291 8015.685398 0.000000 0.000000 0.000000 0.000000 0.000000 32328.667635 95194.808810 0.000000 0.000000 0.000000 0.000000 0.000000 31181.056831 122744.486302 0.000000 0.000000 0.000000 0.000000 0.000000 15805.781834 14462.467179 0.000000 0.000000 0.000000 0.000000 0.000000 68435.594932 151013.696957 0.000000 0.000000 0.000000 0.000000 0.000000 37197.764623 61881.458795 0.000000 0.000000 0.000000 0.000000 0.000000 0.000000 0.000000 0.000000 0.000000 0.000000 0.000000 0.000000 1303.302999 0.000000 0.000000 0.000000 0.000000 0.000000 0.000000 21972.973406 71617.702494 0.000000 0.000000 0.000000 0.000000 0.000000 21302.033753 96853.353920 0.000000 0.000000 0.000000 0.000000 0.000000 4219.681603 37898.047032 0.000000 0.000000 0.000000 0.000000 0.000000 2458.108273 30630.135806 0.000000 0.000000 0.000000 0.000000 0.000000 15473.887309 17509.221232 0.000000 0.000000 0.000000 0.000000 0.000000 36845.931925 40291.049246 0.000000 0.000000 0.000000 0.000000 0.000000 28271.470761 95437.159504 0.000000 0.000000 0.000000 0.000000 0.000000 49499.140162 229378.136971 0.000000 0.000000 0.000000 0.000000 0.000000 49928.154057 245098.911484 0.000000 0.000000 0.000000 0.000000 0.000000 19171.350687 55954.800909 0.000000 0.000000 0.000000 0.000000 0.000000 42676.107281 41143.399201 0.000000 0.000000 0.000000 0.000000 0.000000 39514.738800 110157.947738 0.000000 0.000000 0.000000 0.000000 0.000000 21100.230872 256847.944470 0.000000 0.000000 0.000000 0.000000 0.000000 8821.311176 41717.284654 0.000000 0.000000 0.000000 0.000000 0.000000 0.000000 0.000000 0.000000 0.000000 0.000000 0.000000 0.000000 9458.066580 17037.236888 0.000000 0.000000 0.000000 0.000000 0.000000 23450.010642 91608.970217 0.000000 0.000000 0.000000 0.000000 0.000000 7020.969050 20119.534874 0.000000 0.000000 0.000000 0.000000 0.000000 0.000000 0.000000 0.000000 0.000000 0.000000 0.000000 0.000000 0.000000 0.000000 0.000000 0.000000 0.000000 0.000000 0.000000 0.000000 0.000000 0.000000 0.000000 0.000000 0.000000 0.000000 0.000000 0.000000 0.000000 0.000000 0.000000 0.000000 0.000000 0.000000 0.000000 0.000000 0.000000 0.000000 0.000000 0.000000 0.000000 0.000000 0.000000 0.000000 0.000000 0.000000 0.000000 0.000000 0.000000 0.000000 0.000000 0.000000 0.000000 0.000000 0.000000 0.000000 0.000000 0.000000 0.000000 0.000000 0.000000 0.000000 0.000000 0.000000 0.000000 0.000000 0.000000 0.000000 0.000000 0.000000 0.000000 0.000000 0.000000 0.000000 0.000000 0.000000 0.000000 0.000000 0.000000 0.000000 0.000000 0.000000 0.000000 0.000000 0.000000 0.000000 0.000000 0.000000 0.000000 0.000000 0.000000 0.000000 0.000000 0.000000 0.000000 0.000000 0.000000 0.000000 0.000000 0.000000 0.000000 0.000000 0.000000 0.000000 0.000000 0.000000 0.000000 0.000000 0.000000 0.000000 0.000000 0.000000 0.000000 0.000000 0.000000 0.000000 0.000000 0.000000 0.000000 0.000000 0.000000 0.000000 0.000000 0.000000 0.000000 0.000000 0.000000 0.000000 0.000000 0.000000 0.000000 0.000000 0.000000 0.000000 0.000000 0.000000 0.000000 0.000000 0.000000 0.000000 0.000000 0.000000 0.000000 0.000000 0.000000 0.000000 0.000000 0.000000 0.000000 0.000000 0.000000 0.000000 0.000000 0.000000 0.000000 0.000000 0.000000 0.000000 0.000000 0.000000 0.000000 0.000000 0.000000 0.000000 0.000000 0.000000 0.000000
</DataArray>
<DataArray type="Float64" Name="Velocity" NumberOfComponents="3" format="ascii">