<VTKFile type="PolyData">
<PolyData>
<Piece NumberOfPoints="1840" NumberOfVerts="1840" NumberOfLines="0" NumberOfStrips="0" NumberOfPolys="0">
<PointData>
<DataArray type="Float64" Name="Pressure" format="ascii">
 0.000000 0.000000 0.000000 0.000000 0.000000 0.000000 0.000000 0.000000 0.000000 0.000000 0.000000 0.000000 0.000000 0.000000 0.000000 0.000000 0.000000 0.000000 0.000000 0.000000 0.000000 0.000000 0.000000 0.000000 0.000000 0.000000 0.000000 0.000000 0.000000 0.000000 0.000000 0.000000 0.000000 0.000000 0.000000 0.000000 0.000000 0.000000 0.000000 0.000000 0.000000 0.000000 0.000000 0.000000 0.000000 0.000000 0.000000 0.000000 0.000000 0.000000 0.000000 0.000000 0.000000 0.000000 0.000000 0.000000 0.000000 0.000000 0.000000 0.000000 0.000000 0.000000 0.000000 0.000000 0.000000 0.000000 0.000000 0.000000 0.000000 0.000000 0.000000 0.000000 0.000000 0.000000 0.000000 0.000000 0.000000 0.000000 0.000000 0.000000 0.000000 0.000000 0.000000 0.000000 0.000000 0.000000 0.000000 0.000000 0.000000 0.000000 0.000000 0.000000 0.000000 0.000000 0.000000 0.000000 0.000000 0.000000 0.000000 0.000000 0.000000 0.000000 0.000000 0.000000 0.000000 0.000000 0.000000 0.000000 0.000000 0.000000 0.000000 0.000000 0.000000 0.000000 0.000000 0.000000 42.652956 6107.141072 17713.111980 12601.356758 5656.254015 45123.545802 63825.420808 36704.699127 11399.437542 5005.612852 7067.825511 8913.337109 0.000000 0.000000 0.000000 0.000000 0.000000 0.000000 0.000000 0.000000 0.000000 0.000000 0.000000 0.000000 0.000000 0.000000 0.000000 0.000000 0.000000 0.000000 0.000000 0.000000 0.000000 0.000000 0.000000 0.000000 0.000000 0.000000 0.000000 0.000000 0.000000 0.000000 0.000000 0.000000 0.000000 0.000000 0.000000 0.000000 0.000000 0.000000 0.000000 0.000000 0.000000 0.000000 0.000000 0.000000 0.000000 3806.014922 61917.819818 224326.358214 131041.301557 6637.139567 33257.952559 162808.755077 250248.587633 31017.671093 0.000000 32354.891027 15693.399979 0.000000 0.000000 0.000000 0.000000 0.000000 0.000000 0.000000 0.000000 0.000000 0.000000 0.000000 0.000000 0.000000 0.000000 0.000000 0.000000 0.000000 0.000000 0.000000 0.000000 0.000000 0.000000 0.000000 0.000000 0.000000 0.000000 0.000000 0.000000 0.000000 0.000000 0.000000 0.000000 0.000000 0.000000 0.000000 0.000000 0.000000 0.000000 0.000000 0.000000 0.000000 0.000000 0.000000 0.000000 0.000000 9553.166370 112116.940217 0.000000 173459.731990 88379.261530 0.000000 0.000000 144132.742229 95100.250593 100901.560946 20190.367138 0.000000 0.000000 54814.507705 0.000000 203669.533785 71896.811743 294231.256539 0.000000 0.000000 0.000000 85229.896119 0.000000 0.000000 136112.481752 0.000000 434684.538563 170336.007778 16390.190817 0.000000 0.000000 0.000000 154070.833585 0.000000 127123.332540 22930.042437 12705.177048 0.000000 0.000000 0.000000 0.000000 0.000000 0.000000 0.000000 0.000000 0.000000 12893.205241 76410.468155 0.000000 0.000000 0.000000 160095.503301 0.000000 0.000000 0.000000 0.000000 0.000000 283095.420582 0.000000 0.000000 0.000000 13184.436234 0.000000 0.000000 0.000000 0.000000 142960.318954 0.000000 0.000000 128868.497634 0.000000 391003.914927 0.000000 0.000000 0.000000 65768.019566 0.000000 0.000000 0.000000 122832.436833 0.000000 0.000000 0.000000 0.000000 0.000000 0.000000 250082.627239 0.000000 0.000000 0.000000 0.000000 0.000000 11332.116907 97607.107378 0.000000 0.000000 0.000000 0.000000 0.000000 0.000000 0.000000 0.000000 0.000000 0.000000 0.000000 0.000000 0.000000 0.000000 4731.500321 230089.777511 0.000000 147288.683955 101607.915546 68136.449507 0.000000 0.000000 0.000000 0.000000 0.000000 0.000000 187488.567347 74811.262208 0.000000 0.000000 170077.583980 0.000000 0.000000 42495.287900 0.000000 13088.972182 0.000000 0.000000 67525.617027 0.000000 0.000000 0.000000 0.000000 0.000000 2480.565021 18262.098774 0.000000 0.000000 0.000000 0.000000 0.000000 2900.261572 0.000000 0.000000 0.000000 0.000000 0.000000 0.000000 0.000000 0.000000 237609.673381 18876.604354 43838.474855 0.000000 0.000000 0.000000 0.000000 224034.641041 0.000000 0.000000 0.000000 0.000000 0.000000 0.000000 75953.176756 0.000000 0.000000 0.000000 28483.819354 0.000000 0.000000 0.000000 35922.326754 0.000000 0.000000 0.000000 0.000000 0.000000 0.000000 0.000000 0.000000 0.000000 0.000000 0.000000 0.000000 395933.477569 70859.980319 0.000000 0.000000 0.000000 158596.868240 56084.016029 0.000000 0.000000 0.000000 0.000000 21337.887585 75058.962930 0.000000 0.000000 145188.044828 6474.517647 0.000000 46209.577435 0.000000 0.000000 57193.773867 0.000000 0.000000 0.000000 0.000000 8213.878508 0.000000 0.000000 0.000000 0.000000 0.000000 0.000000 0.000000 0.000000 0.000000 0.000000 0.000000 0.000000 0.000000 0.000000 23128.589535 48259.804875 144166.966383 133410.254705 0.000000 0.000000 59859.236983 0.000000 304758.693697 0.000000 0.000000 66869.551445 0.000000 6564.118865 94196.371821 149332.731037 0.000000 121249.274925 0.000000 0.000000 45056.144237 103395.666865 186609.627551 0.000000 0.000000 61149.137371 18153.200884 0.000000 0.000000 6229.176269 0.000000 21517.236008 0.000000 98188.875445 0.000000 0.000000 0.000000 167576.248914 0.000000 0.000000 0.000000 0.000000 0.000000 0.000000 0.000000 0.000000 103518.758171 364597.147379 74678.335637 51515.376567 79352.561213 0.000000 0.000000 0.000000 0.000000 0.000000 130017.606993 0.000000 0.000000 0.000000 177471.679848 165594.202699 0.000000 0.000000 136823.223344 66637.427014 0.000000 14100.749812 0.000000 0.000000 86780.402689 0.000000 0.000000 107452.817501 0.000000 0.000000 0.000000 0.000000 0.000000 15161.187813 19618.165305 0.000000 14562.574829 10927.096057 89083.996526 0.000000 0.000000 0.000000 0.000000 0.000000 0.000000 0.000000 127336.465025 326826.752175 0.000000 0.000000 40435.175377 0.000000 0.000000 23695.967811 0.000000 0.000000 137842.043083 125084.377667 205368.500127 0.000000 0.000000 0.000000 0.000000 0.000000 0.000000 0.000000 0.000000 184736.386372 59553.706362 0.000000 56797.993303 314345.485126 0.000000 31298.700710 0.000000 0.000000 0.000000 0.000000 0.000000 125604.150905 0.000000 0.000000 53065.358222 0.000000 0.000000 0.000000 0.000000 0.000000 0.000000 0.000000 0.000000 0.000000 50787.546094 92800.321952 342807.323634 0.000000 0.000000 191017.129198 0.000000 24221.104413 632.506704 0.000000 0.000000 0.000000 0.000000 0.000000 0.000000 0.000000 0.000000 0.000000 0.000000 0.000000 0.000000 0.000000 32338.326869 0.000000 0.000000 0.000000 0.000000 114534.940683 0.000000 0.000000 0.000000 0.000000 39163.584729 130780.895514 30279.457813 163255.821097 0.000000 27343.229240 0.000000 63018.532018 0.000000 0.000000 0.000000 0.000000 0.000000 0.000000 4790.733228 0.000000 2008.162045 69986.289282 0.000000 69244.907111 0.000000 0.000000 107025.085779 0.000000 5265.323212 82480.936057 0.000000 0.000000 0.000000 0.000000 102604.134555 0.000000 0.000000 0.000000 0.000000 0.000000 0.000000 221193.390719 102286.097251 0.000000 130968.010151 0.000000 44226.890751 0.000000 0.000000 172504.380917 9072.432297 0.000000 0.000000 0.000000 37272.756801 0.000000 0.000000 9641.313668 0.000000 0.000000 0.000000 0.000000 0.000000 0.000000 2941.799180 11338.846604 143134.432862 0.000000 0.000000 0.000000 0.000000 0.000000 0.000000 0.000000 0.000000 0.000000 0.000000 161197.704188 429511.720267 74449.585066 0.000000 43849.495559 171961.593758 0.000000 124368.263806 0.000000 0.000000 0.000000 0.000000 0.000000 0.000000 19157.397261 0.000000 0.000000 38716.439625 10204.009009 0.000000 0.000000 0.000000 0.000000 0.000000 187690.010911 0.000000 52049.408869 0.000000 0.000000 0.000000 0.000000 0.000000 0.000000 12411.701752 65542.087718 0.000000 34010.409737 0.000000 210796.913367 0.000000 0.000000 29566.184510 72599.929618 0.000000 0.000000 0.000000 0.000000 14333.235056 102133.029683 0.000000 3598.472122 0.000000 0.000000 229794.051062 0.000000 0.000000 70116.835711 0.000000 0.000000 140630.322763 13684.828689 25460.436471 140152.263376 40225.332556 0.000000 0.000000 0.000000 0.000000 0.000000 0.000000 0.000000 0.000000 0.000000 0.000000 0.000000 0.000000 0.000000 0.000000 0.000000 16630.193661 112488.568568 0.000000 0.000000 0.000000 0.000000 0.000000 43370.636645 25019.234147 0.000000 175.302413 221618.605538 68894.048351 130818.389987 0.000000 0.000000 50084.274123 24070.074824 0.000000 0.000000 0.000000 0.000000 91946.157313 205148.457694 0.000000 171368.480902 0.000000 120963.350792 121823.284818 0.000000 149513.466307 10504.476424 105038.955651 0.000000 0.000000 0.000000 0.000000 0.000000 321930.279468 0.000000 0.000000 0.000000 0.000000 0.000000 0.000000 0.000000 21998.573540 89570.103934 0.000000 40334.574258 0.000000 0.000000 0.000000 0.000000 0.000000 0.000000 96814.711285 0.000000 0.000000 1479.511495 37259.718350 0.000000 0.000000 102224.165261 33407.042368 0.000000 0.000000 0.000000 0.000000 59457.242061 0.000000 0.000000 0.000000 142062.132844 0.000000 66926.014118 269399.518715 0.000000 0.000000 0.000000 0.000000 0.000000 0.000000 0.000000 18580.510020 0.000000 0.000000 0.000000 0.000000 0.000000 0.000000 0.000000 30023.739881 73973.131379 93926.185785 0.000000 76289.805127 0.000000 0.000000 0.000000 90709.413891 0.000000 0.000000 0.000000 0.000000 40232.492632 0.000000 27542.021090 0.000000 42153.156843 142904.634023 0.000000 66104.429179 0.000000 0.000000 0.000000 0.000000 158104.450225 19576.144071 0.000000 0.000000 0.000000 0.000000 41732.969924 0.000000 18778.608263 0.000000 60559.153262 0.000000 0.000000 71702.205616 195784.220210 264020.151014 0.000000 0.000000 0.000000 0.000000 0.000000 34202.410188 167388.228339 0.000000 0.000000 0.000000 0.000000 0.000000 0.000000 1903.482865 0.000000 0.000000 99765.185160 0.000000 0.000000 0.000000 0.000000 92082.032300 0.000000 367238.627172 0.000000 0.000000 0.000000 0.000000 0.000000 0.000000 0.000000 25881.385178 0.000000 19144.127441 0.000000 0.000000 41755.192210 0.000000 0.000000 71851.281568 38460.693430 46590.725505 0.000000 0.000000 96196.189981 0.000000 0.000000 0.000000 0.000000 0.000000 0.000000 47404.687878 264952.961699 0.000000 36800.543194 0.000000 0.000000 247782.961919 89268.500199 0.000000 0.000000 0.000000 0.000000 0.000000 0.000000 0.000000 0.000000 265279.669250 271441.358517 0.000000 0.000000 0.000000 0.000000 0.000000 0.000000 0.000000 11109.363606 0.000000 0.000000 0.000000 0.000000 143101.849376 0.000000 0.000000 0.000000 87317.436404 84517.253171 120576.193505 0.000000 8986.922855 0.000000 0.000000 0.000000 0.000000 0.000000 0.000000 0.000000 14515.250630 79541.883497 0.000000 233155.060827 0.000000 367736.622571 43392.153389 43392.153389 0.000000 0.000000 148469.627986 0.000000 0.000000 33895.259118 133425.789926 147872.607878 0.000000 0.000000 0.000000 0.000000 37999.961920 2682.896564 0.000000 0.000000 0.000000 0.000000 0.000000 0.000000 23925.317158 0.000000 0.000000 19435.751738 0.000000 172243.788111 0.000000 0.000000 22574.954025 296372.177804 126718.494126 0.000000 9269.851963 0.000000 0.000000 0.000000 0.000000 0.000000 21505.583403 181506.713088 61810.059429 0.000000 27839.540113 12262.705205 0.000000 8371.460525 25893.764503 147697.440582 33205.837314 0.000000 27968.873347 0.000000 0.000000 0.000000 114375.444380 12436.603722 0.000000 184894.360316 0.000000 17946.229642 44713.054753 153359.728813 341088.940442 0.000000 0.000000 0.000000 82847.370506 0.000000 0.000000 0.000000 52527.429500 0.000000 0.000000 0.000000 0.000000 0.000000 178746.984662 0.000000 0.000000 0.000000 0.000000 0.000000 0.000000 0.000000 19417.169061 142490.039619 0.000000 0.000000 0.000000 0.000000 0.000000 10241.954135 54773.272500 0.000000 0.000000 0.000000 0.000000 0.000000 14316.243301 42465.386771 0.000000 0.000000 0.000000 0.000000 0.000000 36097.620049 114279.310862 0.000000 0.000000 0.000000 0.000000 0.000000 38125.810149 109601.853385 0.000000 0.000000 0.000000 0.000000 0.000000 10387.352330 16188.472387 0.000000 0.000000 0.000000 0.000000 0.000000 17677.628084 102569.572946 0.000000 0.000000 0.000000 0.000000 0.000000 4194.494941 23868.094825 0.000000 0.000000 0.000000 0.000000 0.000000 8189.723906 71099.547550 0.000000 0.000000 0.000000 0.000000 0.000000 24755.558771 71365.497173 0.000000 0.000000 0.000000 0.000000 0.000000 42565.470012 95923.862398 0.000000 0.000000 0.000000 0.000000 0.000000 12581.547891 45374.812425 0.000000 0.000000 0.000000 0.000000 0.000000 8881.661344 98043.181483 0.000000 0.000000 0.000000 0.000000 0.000000 2624.734121 11726.426946 0.000000 0.000000 0.000000 0.000000 0.000000 0.000000 0.000000 0.000000 0.000000 0.000000 0.000000 0.000000 10250.244155 0.000000 0.000000 0.000000 0.000000 0.000000 0.000000 53448.404942 130217.010121 0.000000 0.000000 0.000000 0.000000 0.000000 25888.026439 89773.734423 0.000000 0.000000 0.000000 0.000000 0.000000 21072.603215 110334.427624 0.000000 0.000000 0.000000 0.000000 0.000000 52369.274988 340279.810877 0.000000 0.000000 0.000000 0.000000 0.000000 59923.518970 193517.926285 0.000000 0.000000 0.000000 0.000000 0.000000 68600.688618 82622.100234 0.000000 0.000000 0.000000 0.000000 0.000000 28601.743399 52641.850040 0.000000 0.000000 0.000000 0.000000 0.000000 14436.382449 71259.036759 0.000000 0.000000 0.000000 0.000000 0.000000 9494.034124 20418.396721 0.000000 0.000000 0.000000 0.000000 0.000000 34133.407252 73820.566964 0.000000 0.000000 0.000000 0.000000 0.000000 33444.093028 111741.423421 0.000000 0.000000 0.000000 0.000000 0.000000 18812.047974 55592.048553 0.000000 0.000000 0.000000 0.000000 0.000000 33131.757584 76751.878110 0.000000 0.000000 0.000000 0.000000 0.000000 13259.964404 128625.567106 0.000000 0.000000 0.000000 0.000000 0.000000 8906.933420 193772.571062 0.000000 0.000000 0.000000 0.000000 0.000000 3601.612921 67124.493143 0.000000 0.000000 0.000000 0.000000 0.000000 13178.365135 140437.653609 0.000000 0.000000 0.000000 0.000000 0.000000 54176.354312 310894.318536 0.000000 0.000000 0.000000 0.000000 0.000000 89129.785580 330230.677262 0.000000 0.000000 0.000000 0.000000 0.000000 45795.109568 85083.801195 0.000000 0.000000 0.000000 0.000000 0.000000 29767.843863 11235.509652 0.000000 0.000000 0.000000 0.000000 0.000000 42522.076824 34483.515463 0.000000 0.000000 0.000000 0.000000 0.000000 50124.140948 112921.437947 0.000000 0.000000 0.000000 0.000000 0.000000 62444.319011 132218.664756 0.000000 0.000000 0.000000 0.000000 0.000000 11241.030777 0.000000 0.000000 0.000000 0.000000 0.000000 0.000000 0.000000 0.000000 0.000000 0.000000 0.000000 0.000000 0.000000 7591.352569 29019.997255 0.000000 0.000000 0.000000 0.000000 0.000000 13591.139666 48595.077265 0.000000 0.000000 0.000000 0.000000 0.000000 5753.756172 0.000000 0.000000 0.000000 0.000000 0.000000 0.000000 8806.218222 7405.131348 0.000000 0.000000 0.000000 0.000000 0.000000 5952.249415 25980.366981 0.000000 0.000000 0.000000 0.000000 0.000000 28486.940964 83582.537814 0.000000 0.000000 0.000000 0.000000 0.000000 35987.467377 151107.998811 0.000000 0.000000 0.000000 0.000000 0.000000 6166.762074 60462.934885 0.000000 0.000000 0.000000 0.000000 0.000000 6145.248699 65632.214078 0.000000 0.000000 0.000000 0.000000 0.000000 44917.572399 252670.045566 0.000000 0.000000 0.000000 0.000000 0.000000 45927.417562 95527.109151 0.000000 0.000000 0.000000 0.000000 0.000000 12665.344390 0.000000 0.000000 0.000000 0.000000 0.000000 0.000000 33806.963192 84609.111346 0.000000 0.000000 0.000000 0.000000 0.000000 16413.508141 18623.545448 0.000000 0.000000 0.000000 0.000000 0.000000 0.000000 0.000000 0.000000 0.000000 0.000000 0.000000 0.000000 0.000000 0.000000 0.000000 0.000000 0.000000 0.000000 0.000000 2301.437956 2526.008903 0.000000 0.000000 0.000000 0.000000 0.000000 12485.319239 10948.924113 0.000000 0.000000 0.000000 0.000000 0.000000 21867.948063 8898.191723 0.000000 0.000000 0.000000 0.000000 0.000000 56522.445783 142308.854703 0.000000 0.000000 0.000000 0.000000 0.000000 24509.532053 60023.900006 0.000000 0.000000 0.000000 0.000000 0.000000 0.000000 0.000000 0.000000 0.000000 0.000000 0.000000 0.000000 22416.948132 68835.624061 0.000000 0.000000 0.000000 0.000000 0.000000 66248.970323 423025.886969 0.000000 0.000000 0.000000 0.000000 0.000000 41613.258431 268414.929401 0.000000 0.000000 0.000000 0.000000 0.000000 32547.211857 133849.581587 0.000000 0.000000 0.000000 0.000000 0.000000 32970.921261 112549.916802 0.000000 0.000000 0.000000 0.000000 0.000000 45879.573604 131342.804033 0.000000 0.000000 0.000000 0.000000 0.000000 7937.309715 0.000000 0.000000 0.000000 0.000000 0.000000 0.000000 2174.877932 23825.738534 0.000000 0.000000 0.000000 0.000000 0.000000 1623.394205 10518.305776 0.000000 0.000000 0.000000 0.000000 0.000000 5779.723415 0.000000 0.000000 0.000000 0.000000 0.000000 0.000000 29412.059323 23135.984385 0.000000 0.000000 0.000000 0.000000 0.000000 25000.628347 45828.864425 0.000000 0.000000 0.000000 0.000000 0.000000 32924.534998 221960.192059 0.000000 0.000000 0.000000 0.000000 0.000000 47731.614340 195048.563241 0.000000 0.000000 0.000000 0.000000 0.000000 29534.513892 6257.863788 0.000000 0.000000 0.000000 0.000000 0.000000 36913.292672 45961.076484 0.000000 0.000000 0.000000 0.000000 0.000000 83273.791342 365954.942087 0.000000 0.000000 0.000000 0.000000 0.000000 21014.426526 80596.142732 0.000000 0.000000 15225.321657 0.000000 0.000000 0.000000 0.000000 0.000000 0.000000 0.000000 0.000000 0.000000 0.000000 0.000000 0.000000 0.000000 0.000000 0.000000 0.000000 0.000000 0.000000 0.000000 0.000000 0.000000 0.000000 0.000000 0.000000 0.000000 0.000000 0.000000 0.000000 0.000000 0.000000 0.000000 0.000000 0.000000 0.000000 0.000000 0.000000 0.000000 0.000000 0.000000 0.000000 0.000000 0.000000 0.000000 0.000000 0.000000 0.000000 0.000000 0.000000 0.000000 0.000000 0.000000 0.000000 0.000000 0.000000 0.000000 0.000000 0.000000 0.000000 0.000000 0.000000 0.000000 0.000000 0.000000 0.000000 0.000000 0.000000 0.000000 0.000000 0.000000 0.000000 0.000000 0.000000 0.000000 0.000000 0.000000 0.000000 0.000000 0.000000 0.000000 0.000000 0.000000 0.000000 0.000000 0.000000 0.000000 0.000000 0.000000 0.000000 0.000000 0.000000 0.000000 0.000000 0.000000 0.000000 0.000000 0.000000 0.000000 0.000000 0.000000 0.000000 0.000000 0.000000 0.000000 0.000000 0.000000 0.000000 0.000000 0.000000 0.000000 0.000000 0.000000 0.000000 0.000000 0.000000 0.000000 0.000000 0.000000 0.000000 0.000000 0.000000 0.000000 0.000000 0.000000 0.000000 0.000000 0.000000 0.000000 0.000000 0.000000 0.000000 0.000000 0.000000 0.000000 0.000000 0.000000 0.000000 0.000000 0.000000 0.000000 0.000000 0.000000 0.000000 0.000000 0.000000 0.000000 0.000000 0.000000 0.000000 0.000000 0.000000 0.000000 0.000000 0.000000 0.000000 0.000000 0.000000 0.000000 0.000000 0.000000 0.000000 0.000000 0.000000 0.000000 0.000000
</DataArray>
<DataArray type="Float64" Name="Velocity" NumberOfComponents="3" format="ascii">