<VTKFile type="PolyData">
<PolyData>
<Piece NumberOfPoints="1840" NumberOfVerts="1840" NumberOfLines="0" NumberOfStrips="0" NumberOfPolys="0">
<PointData>
<DataArray type="Float64" Name="Pressure" format="ascii">
 0.000000 0.000000 0.000000 0.000000 0.000000 0.000000 0.000000 0.000000 0.000000 0.000000 0.000000 0.000000 0.000000 0.000000 0.000000 0.000000 0.000000 0.000000 0.000000 0.000000 0.000000 0.000000 0.000000 0.000000 0.000000 0.000000 0.000000 0.000000 0.000000 0.000000 0.000000 0.000000 0.000000 0.000000 0.000000 0.000000 0.000000 0.000000 0.000000 0.000000 0.000000 0.000000 0.000000 0.000000 0.000000 0.000000 0.000000 0.000000 0.000000 0.000000 0.000000 0.000000 0.000000 0.000000 0.000000 0.000000 0.000000 0.000000 0.000000 0.000000 0.000000 0.000000 0.000000 0.000000 0.000000 0.000000 0.000000 0.000000 0.000000 0.000000 0.000000 0.000000 0.000000 0.000000 0.000000 0.000000 0.000000 0.000000 0.000000 0.000000 0.000000 0.000000 0.000000 0.000000 0.000000 0.000000 0.000000 0.000000 0.000000 0.000000 0.000000 0.000000 0.000000 0.000000 0.000000 0.000000 0.000000 0.000000 0.000000 0.000000 0.000000 0.000000 0.000000 0.000000 0.000000 0.000000 0.000000 0.000000 0.000000 0.000000 0.000000 0.000000 0.000000 0.000000 0.000000 0.000000 23805.028684 87672.863540 98891.509090 97623.621571 87108.363354 70462.537395 54728.170698 31037.861878 20845.186525 13581.506893 12972.635079 10569.427358 12403.681132 16816.627298 21620.059607 22761.850440 14275.754295 5439.278645 1606.334415 462.136868 103.825984 0.000000 0.000000 0.000000 0.000000 0.000000 0.000000 0.000000 0.000000 0.000000 0.000000 0.000000 0.000000 0.000000 0.000000 0.000000 0.000000 0.000000 0.000000 0.000000 0.000000 0.000000 0.000000 0.000000 0.000000 0.000000 0.000000 0.000000 0.000000 0.000000 0.000000 0.000000 0.000000 0.000000 0.000000 0.000000 0.000000 91664.784829 402141.030685 372383.836025 371300.237653 328786.103989 302209.794971 312707.814367 286936.230315 236240.732530 180478.648498 174642.463048 160780.578241 163206.559133 181265.998156 239545.433780 307578.395441 214663.845453 82193.397847 25332.086746 7850.670018 2342.229480 461.863336 0.000000 0.000000 0.000000 0.000000 0.000000 0.000000 0.000000 0.000000 0.000000 0.000000 0.000000 0.000000 0.000000 0.000000 0.000000 0.000000 0.000000 0.000000 0.000000 0.000000 0.000000 0.000000 0.000000 0.000000 0.000000 0.000000 0.000000 0.000000 0.000000 0.000000 0.000000 0.000000 0.000000 0.000000 0.000000 107511.879442 405150.426686 402141.030685 304300.778095 357414.335574 258651.162113 342019.655220 227221.870142 316936.013675 283531.692762 345355.382233 322075.325086 280868.379545 283215.069303 306387.038894 333668.928020 316316.193151 244321.395912 191264.233930 220372.906180 338730.566529 420814.310600 397075.760228 276842.607179 130734.414196 46962.851137 15805.994383 5231.421914 1550.199347 215.248587 0.000000 0.000000 0.000000 0.000000 0.000000 0.000000 0.000000 0.000000 0.000000 0.000000 0.000000 0.000000 0.000000 0.000000 0.000000 0.000000 103168.758100 369965.188063 378840.604267 293947.626978 307999.918346 293723.752161 299765.048749 301762.769259 286139.241420 268587.237417 267788.822156 241851.691321 226525.928929 182362.806700 160252.112545 194485.222078 249616.173838 246590.895145 196255.912010 133317.466382 113235.974865 161614.976884 228753.570239 217505.036929 129980.414659 54791.014893 20081.513911 7196.285281 2518.299405 710.762711 0.000000 0.000000 0.000000 0.000000 0.000000 0.000000 0.000000 0.000000 0.000000 0.000000 0.000000 0.000000 0.000000 0.000000 0.000000 0.000000 104454.962785 427988.617708 402281.378538 281810.002812 281888.298844 312303.336594 298250.215939 274322.041826 254747.436080 232469.560095 230548.590166 279544.470352 306885.015297 286482.007980 224330.859114 192710.068070 209927.088108 250671.630401 263305.486481 221159.350242 190466.662966 215287.705140 251583.229302 226748.631550 140312.693519 62647.423652 23804.082723 8700.112985 3128.015438 984.068164 80.200767 0.000000 0.000000 0.000000 0.000000 0.000000 0.000000 0.000000 0.000000 0.000000 0.000000 0.000000 0.000000 0.000000 0.000000 0.000000 95466.187062 442895.620689 427634.658947 305404.205212 307979.571158 276200.988116 274752.994200 314960.978795 307763.028584 277274.888288 235068.487626 215257.347483 240272.010608 255650.584115 234858.925304 222623.389922 213108.839485 214599.172183 204386.633568 160272.244834 139434.656317 168358.180196 212680.683883 208095.322025 139510.674698 66371.141173 26212.410210 9836.714973 3695.741258 1365.136800 423.900377 26.763667 0.000000 0.000000 0.000000 0.000000 0.000000 0.000000 0.000000 0.000000 0.000000 0.000000 0.000000 0.000000 0.000000 0.000000 103950.879904 418478.151040 425166.500168 347255.328533 347979.221885 292103.114202 262974.973638 261615.026833 278797.657080 284865.111545 263017.488045 259053.694510 254696.237046 230729.078597 208931.611763 200874.605376 207557.436254 240565.101489 242510.237366 189342.088208 154289.796283 168246.580867 202276.100986 199020.016041 137643.894087 67963.546172 27607.193573 10492.184485 3904.976403 1364.259241 326.367154 0.000000 0.000000 0.000000 0.000000 0.000000 0.000000 0.000000 0.000000 0.000000 0.000000 0.000000 0.000000 0.000000 0.000000 0.000000 104047.900660 371965.104734 374240.433775 288092.947593 292966.833135 312986.713614 316103.568132 316052.308779 294509.023841 244847.269189 227445.546862 239931.179161 253999.693752 254808.416187 231133.701936 194582.100006 188298.560621 216750.897692 217971.805081 171374.487424 140967.486919 153604.432960 185732.041914 186152.170244 132409.300034 67585.320385 28278.673700 11018.165339 4248.125599 1642.262121 594.910105 138.039424 0.000000 0.000000 0.000000 0.000000 0.000000 0.000000 0.000000 0.000000 0.000000 0.000000 0.000000 0.000000 0.000000 0.000000 107812.558833 398205.945683 410255.962400 332613.307280 332295.734533 286986.020170 268755.885555 273002.120090 283735.841727 276765.906105 250153.029073 228667.358947 234133.295533 237532.687302 211246.335561 187110.077854 197070.680009 226329.204020 221299.573801 171229.906629 137830.232939 146065.272227 173852.858837 174149.316069 125391.444960 65394.207460 27960.888490 11054.449215 4285.758963 1642.700302 564.049835 85.652593 0.000000 0.000000 0.000000 0.000000 0.000000 0.000000 0.000000 0.000000 0.000000 0.000000 0.000000 0.000000 0.000000 0.000000 108928.240130 408340.843775 387412.120726 283190.438168 276518.130407 299974.566010 297966.938243 293416.481718 275513.630281 248790.464851 225553.856390 237499.570028 257229.598786 241104.892243 197357.239249 179236.223360 190116.624575 212664.851071 206620.592613 160304.903217 128845.075543 136485.144044 161834.354849 161662.909833 117047.238378 62045.459874 27120.724442 10964.943439 4341.462089 1692.618307 591.595635 96.267796 0.000000 0.000000 0.000000 0.000000 0.000000 0.000000 0.000000 0.000000 0.000000 0.000000 0.000000 0.000000 0.000000 0.000000 109060.161223 384074.241076 378201.194921 257580.415650 252366.892974 289477.739005 292274.776726 292529.238404 266732.880474 236879.295784 227907.852218 238462.592752 241876.571150 216226.314371 184749.464543 178594.357815 190741.785481 208410.043436 198238.101939 150930.493577 120538.239814 128163.337911 150867.761272 148881.249583 107294.536795 57323.766533 25436.372988 10427.702575 4171.662567 1661.746877 644.885376 206.787768 16.069465 0.000000 0.000000 0.000000 0.000000 0.000000 0.000000 0.000000 0.000000 0.000000 0.000000 0.000000 0.000000 0.000000 108598.577706 377988.419305 384925.692451 265032.375760 259725.212111 285107.380563 285298.899631 280651.872301 258270.697196 237720.886318 233947.084280 235891.632837 227614.915306 202837.880828 176799.494167 173391.684016 185126.092775 197217.826047 182375.243259 136729.118690 110850.021656 120439.472385 140925.590794 136449.867801 97121.750436 52006.166899 23365.828634 9710.109781 3913.094149 1544.704853 570.669826 148.271311 0.000000 0.000000 0.000000 0.000000 0.000000 0.000000 0.000000 0.000000 0.000000 0.000000 0.000000 0.000000 0.000000 0.000000 107409.166184 387043.254839 384032.517934 249730.343655 244789.007726 291269.493876 297009.054610 288513.486165 250678.969633 212957.646228 213981.746713 227493.951825 219645.639424 188081.019173 162958.634005 169247.047110 184503.983904 187111.186688 164289.452138 121176.760049 100951.723556 112654.973434 130610.735088 123288.673566 86170.208013 46101.125077 20978.398382 8889.080521 3668.833225 1495.499007 596.294321 221.005407 67.629746 8.144779 0.000000 0.000000 19.549590 0.000000 0.000000 0.000000 0.000000 0.000000 0.000000 0.000000 0.000000 0.000000 104951.841995 383297.734931 360457.917405 247469.622827 239781.528284 275455.225961 270181.322046 259390.210068 233125.850260 203836.204446 209059.405181 223106.534892 212268.076194 176266.272808 151603.131776 164272.637295 179977.041393 171079.268110 141910.995919 104889.673585 92079.702638 105985.439960 120731.126630 109934.718726 74758.559010 39677.173611 18155.335044 7749.655458 3194.206187 1271.387038 474.030576 151.167830 23.270901 0.000000 0.000000 0.000000 0.000000 0.000000 0.000000 0.000000 0.000000 0.000000 0.000000 0.000000 0.000000 0.000000 106185.629104 385254.187571 303443.729054 232992.902673 218311.544138 265583.909381 251320.154621 232661.249706 219833.521724 206864.052973 206735.712059 198977.430307 176649.895141 151853.780897 140487.248153 156011.737552 167389.384272 148962.425546 117768.887231 89260.477156 84175.477120 99611.691921 110445.785680 96313.222152 63510.666848 33478.991473 15514.646116 6798.299414 2928.429537 1264.537193 556.073866 255.448729 127.449104 70.113801 45.941844 22.907917 36.058796 0.000000 22.902415 0.000000 0.000000 0.000000 0.000000 0.000000 0.000000 0.000000 102115.165220 370647.853828 269550.878277 236391.275460 220889.029831 255780.986154 224304.021735 199978.591447 191063.636656 182362.686234 191128.404213 190670.329799 164604.592187 141881.346541 140973.459988 155280.267492 154993.941910 125557.792402 94868.844306 75380.477162 76893.333162 92365.743853 98440.569592 81518.700520 51881.665014 27072.901719 12636.873569 5620.566930 2467.264934 1091.808635 496.814672 238.279703 124.351079 72.108923 47.937615 30.295401 34.906674 0.000000 43.744204 0.000000 0.000000 0.000000 0.000000 0.000000 0.000000 0.000000 92110.273248 328716.828123 224782.837109 191963.981764 189565.529534 208003.238672 174892.342732 171672.455194 183243.732206 182922.192638 160819.312278 144999.159561 131787.915458 115850.108228 114802.370649 125443.066672 120855.573542 91574.095232 69689.629673 62558.758564 70897.243376 85253.643054 85992.939973 66992.512730 40991.593805 21144.227490 9946.126248 4515.873849 2055.344635 970.955730 495.529573 284.836179 188.109360 139.273997 110.878135 88.264735 76.533842 40.921641 71.602488 0.000000 0.000000 0.000000 0.000000 0.000000 0.000000 0.000000 87486.127996 295910.345578 178004.550889 141461.483332 138436.777383 168928.334150 155230.455000 141692.282147 141269.877636 149303.332205 145904.326848 128595.250997 125281.642802 131156.766957 126576.182389 122948.540607 110150.674613 78694.340868 60194.977469 58114.457809 66238.292125 74507.834722 69180.336686 50284.821216 29516.479624 14975.713219 7030.222106 3219.988050 1498.942353 738.768791 403.185018 252.856952 182.898905 147.287826 126.245151 109.739860 97.021864 72.674238 80.058899 0.000000 0.000000 0.000000 0.000000 0.000000 0.000000 0.000000 83998.752380 279644.833006 154789.391777 79892.149330 76963.567441 104477.845344 96047.096512 90616.835818 102347.216167 105962.650695 100872.695023 91609.288345 73394.223868 72916.973765 73033.089452 60417.030519 51521.821157 36261.809372 30037.275487 36288.497211 47494.696751 54783.496078 49949.483112 35771.842746 21101.284402 10845.776340 5119.554605 2353.579948 1130.984477 603.334026 370.856295 264.367390 211.375278 180.298277 157.544201 136.677977 115.807241 88.693963 70.713932 0.000000 0.000000 0.000000 0.000000 0.000000 0.000000 0.000000 66147.648692 233598.976525 51123.572218 0.000000 53945.777349 65651.542294 93365.884319 86118.306963 74794.249866 59365.563690 76224.362658 88840.677681 102592.526850 105672.247812 102205.011257 81417.479463 64504.991196 53021.479962 48406.607143 50323.565425 52148.825277 48973.229249 38555.584561 24714.320186 12737.215726 4718.305175 230.916922 0.000000 0.000000 0.000000 0.000000 0.000000 0.000000 0.000000 0.000000 0.000000 0.000000 0.000000 0.000000 0.000000 0.000000 0.000000 0.000000 0.000000 0.000000 0.000000 69496.793259 222500.764634 0.000000 0.000000 0.000000 10617.468124 18658.921517 8925.305885 23428.987021 0.000000 0.000000 0.000000 0.000000 0.000000 0.000000 0.000000 0.000000 0.000000 0.000000 0.000000 0.000000 0.000000 0.000000 0.000000 0.000000 0.000000 0.000000 0.000000 0.000000 0.000000 0.000000 0.000000 0.000000 0.000000 0.000000 0.000000 0.000000 0.000000 0.000000 0.000000 0.000000 0.000000 0.000000 0.000000 0.000000 0.000000 47822.431942 160268.198651 0.000000 0.000000 0.000000 0.000000 0.000000 66100.112811 180728.681448 0.000000 0.000000 0.000000 0.000000 0.000000 34367.324086 98716.493755 0.000000 0.000000 0.000000 0.000000 0.000000 47505.620908 124843.021804 0.000000 0.000000 0.000000 0.000000 0.000000 46243.943689 133600.610884 0.000000 0.000000 0.000000 0.000000 0.000000 29029.036561 71769.688635 0.000000 0.000000 0.000000 0.000000 0.000000 23092.353740 54469.407648 0.000000 0.000000 0.000000 0.000000 0.000000 2061.584309 5686.486456 0.000000 0.000000 0.000000 0.000000 0.000000 14253.255454 12292.992414 0.000000 0.000000 0.000000 0.000000 0.000000 23854.496561 4602.090793 0.000000 0.000000 0.000000 0.000000 0.000000 2032.995270 0.000000 0.000000 0.000000 0.000000 0.000000 0.000000 0.000000 0.000000 0.000000 0.000000 0.000000 0.000000 0.000000 0.000000 0.000000 0.000000 0.000000 0.000000 0.000000 0.000000 0.000000 0.000000 0.000000 0.000000 0.000000 0.000000 0.000000 0.000000 0.000000 0.000000 0.000000 0.000000 0.000000 0.000000 0.000000 0.000000 0.000000 0.000000 0.000000 0.000000 0.000000 0.000000 0.000000 0.000000 0.000000 0.000000 0.000000 0.000000 0.000000 0.000000 0.000000 0.000000 0.000000 0.000000 0.000000 0.000000 0.000000 0.000000 0.000000 0.000000 0.000000 0.000000 0.000000 0.000000 0.000000 0.000000 0.000000 0.000000 0.000000 0.000000 0.000000 0.000000 0.000000 0.000000 0.000000 0.000000 0.000000 0.000000 0.000000 0.000000 0.000000 0.000000 0.000000 0.000000 0.000000 0.000000 0.000000 0.000000 0.000000 0.000000 0.000000 0.000000 0.000000 0.000000 0.000000 0.000000 0.000000 0.000000 0.000000 0.000000 0.000000 0.000000 0.000000 0.000000 0.000000 0.000000 0.000000 0.000000 0.000000 0.000000 0.000000 0.000000 0.000000 0.000000 0.000000 0.000000 0.000000 0.000000 0.000000 0.000000 0.000000 0.000000 0.000000 0.000000 0.000000 0.000000 0.000000 0.000000 0.000000 0.000000 0.000000 0.000000 0.000000 0.000000 0.000000 0.000000 0.000000 0.000000 0.000000 0.000000 0.000000 0.000000 0.000000 0.000000 0.000000 0.000000 0.000000 0.000000 0.000000 0.000000 0.000000 0.000000 0.000000 0.000000 0.000000 0.000000 0.000000 0.000000 0.000000 0.000000 0.000000 0.000000 0.000000 0.000000 0.000000 0.000000 0.000000 0.000000 0.000000 0.000000 0.000000 0.000000 0.000000 0.000000 0.000000 0.000000 0.000000 0.000000 0.000000 0.000000 0.000000 0.000000 0.000000 0.000000 0.000000 0.000000 0.000000 0.000000 0.000000 0.000000 0.000000 0.000000 0.000000 0.000000 0.000000 0.000000 0.000000 0.000000 0.000000 0.000000 0.000000 0.000000 0.000000 0.000000 0.000000 0.000000 0.000000 0.000000 0.000000 0.000000 0.000000 0.000000 0.000000 0.000000 0.000000 0.000000 0.000000 0.000000 0.000000 0.000000 0.000000 0.000000 0.000000 0.000000 0.000000 0.000000 0.000000 0.000000 0.000000 0.000000 0.000000 0.000000 0.000000 0.000000 0.000000 0.000000 0.000000 0.000000 0.000000 0.000000 0.000000 0.000000 0.000000 0.000000 0.000000 0.000000 0.000000 0.000000 0.000000 0.000000 0.000000 0.000000 0.000000 0.000000 0.000000 0.000000 0.000000 0.000000 0.000000 0.000000 0.000000 0.000000 0.000000 0.000000 0.000000 0.000000 0.000000 0.000000 0.000000 0.000000 0.000000 0.000000 0.000000 0.000000 0.000000 0.000000 0.000000 0.000000 0.000000 0.000000 0.000000 0.000000 0.000000 0.000000 0.000000 0.000000 0.000000 0.000000 0.000000 0.000000 0.000000 0.000000 0.000000 0.000000 0.000000 0.000000 0.000000 0.000000 0.000000 0.000000 0.000000 0.000000 0.000000 0.000000 0.000000 0.000000 0.000000 0.000000 0.000000 0.000000 0.000000 0.000000 0.000000 0.000000 0.000000 0.000000 0.000000 0.000000 0.000000 0.000000 0.000000 0.000000 0.000000 0.000000 0.000000 0.000000 0.000000 0.000000 0.000000 0.000000 0.000000 0.000000 0.000000 0.000000 0.000000 0.000000 0.000000 0.000000 0.000000 0.000000 0.000000 0.000000 0.000000 0.000000 0.000000 0.000000 0.000000 0.000000 0.000000 0.000000 0.000000 0.000000 0.000000 0.000000 0.000000 0.000000 0.000000 0.000000 0.000000 0.000000 0.000000 0.000000 0.000000 0.000000 0.000000 0.000000 0.000000 0.000000 0.000000 0.000000 0.000000 0.000000 0.000000 0.000000 0.000000 0.000000 0.000000 0.000000 0.000000 0.000000 0.000000 0.000000 0.000000 0.000000 0.000000 0.000000 0.000000 0.000000 0.000000 0.000000 0.000000 0.000000 0.000000 0.000000 0.000000 0.000000 0.000000 0.000000 0.000000 0.000000 0.000000 0.000000 0.000000 0.000000 0.000000 0.000000 0.000000 0.000000 0.000000 0.000000 0.000000 0.000000 0.000000 0.000000 0.000000 0.000000 0.000000 0.000000 0.000000 0.000000 0.000000 0.000000 0.000000 0.000000 0.000000 0.000000 0.000000 0.000000 0.000000 0.000000 0.000000 0.000000 0.000000 0.000000 0.000000 0.000000 0.000000 0.000000 0.000000 0.000000 0.000000 0.000000 0.000000 0.000000 0.000000 0.000000 0.000000 0.000000 0.000000 0.000000 0.000000 0.000000 0.000000 0.000000 0.000000 0.000000 0.000000 0.000000 0.000000 0.000000 0.000000 0.000000 0.000000 0.000000 0.000000 0.000000 0.000000 0.000000 0.000000 0.000000 0.000000 0.000000 0.000000 0.000000 0.000000 0.000000 0.000000 0.000000 0.000000 0.000000 0.000000 0.000000 0.000000 0.000000 0.000000 0.000000 0.000000 0.000000 0.000000 0.000000 0.000000 0.000000 0.000000 0.000000 0.000000 0.000000 0.000000 0.000000 0.000000 0.000000 0.000000 0.000000 0.000000 0.000000 0.000000 0.000000 0.000000 0.000000 0.000000 0.000000 0.000000 0.000000 0.000000 0.000000 0.000000 0.000000 0.000000 0.000000 0.000000 0.000000 0.000000 0.000000 0.000000 0.000000 0.000000 0.000000 0.000000 0.000000 0.000000 0.000000 0.000000 0.000000 0.000000 0.000000 0.000000 0.000000 0.000000 0.000000 0.000000 0.000000 0.000000 0.000000 0.000000 0.000000 0.000000 0.000000 0.000000 0.000000 0.000000 0.000000 0.000000 0.000000 0.000000 0.000000 0.000000 0.000000 0.000000 0.000000 0.000000 0.000000 0.000000 0.000000 0.000000 0.000000 0.000000 0.000000 0.000000 0.000000 0.000000 0.000000 0.000000 0.000000 0.000000 0.000000 0.000000 0.000000 0.000000 0.000000 0.000000 0.000000 0.000000 0.000000 0.000000 0.000000 0.000000 0.000000 0.000000 0.000000 0.000000 0.000000 0.000000 0.000000 0.000000 0.000000 0.000000 0.000000 0.000000 0.000000 0.000000 0.000000 0.000000 0.000000 0.000000 0.000000 0.000000 0.000000 0.000000 0.000000 0.000000 0.000000 0.000000 0.000000 0.000000 0.000000 0.000000 0.000000 0.000000 0.000000 0.000000 0.000000 0.000000 0.000000 0.000000 0.000000 0.000000 0.000000 0.000000 0.000000 0.000000 0.000000 0.000000 0.000000 0.000000 0.000000 0.000000 0.000000 0.000000 0.000000 0.000000 0.000000 0.000000 0.000000 0.000000 0.000000 0.000000 0.000000 0.000000 0.000000 0.000000 0.000000 0.000000 0.000000 0.000000 0.000000 0.000000 0.000000 0.000000 0.000000 0.000000 0.000000 0.000000 0.000000 0.000000 0.000000 0.000000
</DataArray>
<DataArray type="Float64" Name="Velocity" NumberOfComponents="3" format="ascii">