<VTKFile type="PolyData">
<PolyData>
<Piece NumberOfPoints="1840" NumberOfVerts="1840" NumberOfLines="0" NumberOfStrips="0" NumberOfPolys="0">
<PointData>
<DataArray type="Float64" Name="Pressure" format="ascii">
 0.000000 0.000000 0.000000 0.000000 0.000000 0.000000 0.000000 0.000000 0.000000 0.000000 0.000000 0.000000 0.000000 0.000000 0.000000 0.000000 0.000000 0.000000 0.000000 0.000000 0.000000 0.000000 0.000000 0.000000 0.000000 0.000000 0.000000 0.000000 0.000000 0.000000 0.000000 0.000000 0.000000 0.000000 0.000000 0.000000 0.000000 0.000000 0.000000 0.000000 0.000000 0.000000 0.000000 0.000000 0.000000 0.000000 0.000000 0.000000 0.000000 0.000000 0.000000 0.000000 0.000000 0.000000 0.000000 0.000000 0.000000 0.000000 0.000000 0.000000 0.000000 0.000000 0.000000 0.000000 0.000000 0.000000 0.000000 0.000000 0.000000 0.000000 0.000000 0.000000 0.000000 0.000000 0.000000 0.000000 0.000000 0.000000 0.000000 0.000000 0.000000 0.000000 0.000000 0.000000 0.000000 0.000000 0.000000 0.000000 0.000000 0.000000 0.000000 0.000000 0.000000 0.000000 0.000000 0.000000 0.000000 0.000000 0.000000 0.000000 0.000000 0.000000 0.000000 0.000000 0.000000 0.000000 0.000000 0.000000 0.000000 0.000000 0.000000 0.000000 0.000000 0.000000 0.000000 0.000000 0.000000 0.000000 0.000000 0.000000 5934.616813 1489.013771 0.000000 0.000000 0.000000 0.000000 0.000000 0.000000 0.000000 0.000000 0.000000 0.000000 0.000000 0.000000 0.000000 0.000000 0.000000 0.000000 0.000000 0.000000 0.000000 0.000000 0.000000 0.000000 0.000000 0.000000 0.000000 0.000000 0.000000 0.000000 0.000000 0.000000 0.000000 0.000000 0.000000 0.000000 0.000000 0.000000 0.000000 0.000000 0.000000 0.000000 0.000000 0.000000 0.000000 0.000000 0.000000 0.000000 0.000000 0.000000 0.000000 0.000000 0.000000 0.000000 0.000000 0.000000 0.000000 23560.561756 0.000000 0.000000 0.000000 0.000000 0.000000 0.000000 0.000000 0.000000 0.000000 0.000000 0.000000 0.000000 0.000000 0.000000 0.000000 0.000000 0.000000 0.000000 0.000000 0.000000 0.000000 0.000000 0.000000 0.000000 0.000000 0.000000 0.000000 0.000000 0.000000 0.000000 0.000000 0.000000 0.000000 0.000000 0.000000 0.000000 0.000000 0.000000 0.000000 0.000000 0.000000 0.000000 0.000000 0.000000 0.000000 0.000000 0.000000 0.000000 0.000000 0.000000 0.000000 0.000000 6275.818424 0.000000 0.000000 0.000000 0.000000 55557.358407 0.000000 0.000000 0.000000 0.000000 94294.202165 0.000000 13465.934569 0.000000 0.000000 692.981548 15989.810614 32903.041996 22403.663431 0.000000 0.000000 0.000000 0.000000 0.000000 11679.821659 5369.033605 0.000000 0.000000 0.000000 0.000000 0.000000 0.000000 0.000000 0.000000 7595.623937 0.000000 0.000000 0.000000 0.000000 0.000000 0.000000 0.000000 0.000000 0.000000 0.000000 0.000000 28569.467974 75246.670792 0.000000 0.000000 0.000000 0.000000 213123.871130 0.000000 0.000000 83833.668200 0.000000 0.000000 0.000000 5200.838928 0.000000 49686.464175 159787.627672 0.000000 0.000000 0.000000 0.000000 47240.221085 0.000000 51835.229845 0.000000 0.000000 0.000000 0.000000 123100.100632 0.000000 0.000000 0.000000 0.000000 0.000000 0.000000 18331.466346 0.000000 28380.731542 0.000000 7386.793142 84786.181029 0.000000 0.000000 0.000000 0.000000 0.000000 46167.011795 175839.836068 57053.235854 0.000000 147912.714691 39010.982658 5723.152406 0.000000 0.000000 0.000000 0.000000 0.000000 0.000000 0.000000 98482.700882 0.000000 70737.096879 0.000000 0.000000 5774.072743 0.000000 0.000000 0.000000 67572.444175 155746.061419 28413.919318 0.000000 0.000000 50248.053039 0.000000 0.000000 0.000000 0.000000 0.000000 0.000000 0.000000 0.000000 0.000000 78287.014937 19733.206567 0.000000 0.000000 0.000000 0.000000 0.000000 0.000000 13330.344578 10600.265603 0.000000 61349.560901 0.000000 0.000000 89179.321053 0.000000 133742.877468 0.000000 37525.474579 31280.604930 0.000000 0.000000 8704.927422 15140.534990 0.000000 52637.479249 130916.588060 0.000000 26590.685576 0.000000 0.000000 0.000000 0.000000 0.000000 0.000000 78974.926304 0.000000 0.000000 0.000000 0.000000 103526.163673 0.000000 0.000000 33427.236020 72965.541975 0.000000 0.000000 42720.833785 0.000000 0.000000 0.000000 0.000000 0.000000 0.000000 0.000000 0.000000 102405.591465 0.000000 107851.370886 0.000000 45904.688839 0.000000 0.000000 45539.676674 0.000000 0.000000 155473.200103 23753.881636 138.380660 0.000000 0.000000 0.000000 0.000000 89062.663978 0.000000 23875.755635 0.000000 228202.965419 0.000000 0.000000 0.000000 0.000000 0.000000 0.000000 0.000000 0.000000 0.000000 0.000000 0.000000 183885.125578 0.000000 0.000000 0.000000 0.000000 0.000000 0.000000 0.000000 0.000000 0.000000 0.000000 0.000000 0.000000 0.000000 0.000000 0.000000 0.000000 0.000000 0.000000 0.000000 0.000000 0.000000 0.000000 369373.972995 0.000000 0.000000 0.000000 0.000000 0.000000 0.000000 0.000000 0.000000 0.000000 0.000000 57213.166630 0.000000 0.000000 0.000000 0.000000 0.000000 0.000000 0.000000 0.000000 0.000000 1475.862434 0.000000 0.000000 189018.440125 171066.337950 0.000000 0.000000 0.000000 0.000000 0.000000 0.000000 0.000000 0.000000 10769.373905 40720.473850 0.000000 0.000000 51494.453835 0.000000 0.000000 27252.459701 145392.063123 0.000000 0.000000 120176.650456 0.000000 0.000000 0.000000 0.000000 0.000000 0.000000 0.000000 0.000000 0.000000 0.000000 4186.145592 0.000000 0.000000 0.000000 109271.140494 0.000000 0.000000 0.000000 0.000000 165678.153249 47811.095203 0.000000 0.000000 0.000000 0.000000 0.000000 170088.610207 132397.763129 0.000000 0.000000 0.000000 0.000000 0.000000 0.000000 17337.610903 100781.327471 0.000000 0.000000 0.000000 0.000000 0.000000 34319.364158 0.000000 3169.780002 33637.089134 76705.323541 0.000000 0.000000 33283.318590 142.786296 61899.718555 75645.070440 0.000000 0.000000 48703.229141 0.000000 0.000000 9214.815404 92508.698090 0.000000 0.000000 0.000000 48990.183290 40765.071678 55534.148265 0.000000 54866.219491 0.000000 234116.449434 57438.331420 0.000000 0.000000 0.000000 0.000000 0.000000 0.000000 0.000000 0.000000 0.000000 0.000000 11358.006224 16322.223522 0.000000 0.000000 80182.403294 156291.311790 0.000000 0.000000 29440.667883 0.000000 0.000000 156306.755357 304545.651507 0.000000 0.000000 0.000000 291315.351319 0.000000 19709.198038 0.000000 0.000000 0.000000 0.000000 0.000000 0.000000 0.000000 0.000000 0.000000 0.000000 129818.852724 0.000000 130476.989111 0.000000 0.000000 0.000000 0.000000 0.000000 0.000000 0.000000 5911.245650 282996.281105 0.000000 0.000000 0.000000 0.000000 0.000000 25018.066129 7582.677219 0.000000 0.000000 49685.072808 0.000000 45598.157997 0.000000 0.000000 12187.739437 0.000000 0.000000 112551.322853 0.000000 0.000000 159738.653605 0.000000 0.000000 0.000000 88717.360749 0.000000 0.000000 0.000000 0.000000 0.000000 0.000000 9627.743545 0.000000 13337.088623 0.000000 0.000000 0.000000 109767.016505 0.000000 0.000000 0.000000 0.000000 12201.216855 0.000000 254599.487454 8276.625941 0.000000 0.000000 0.000000 0.000000 0.000000 61324.836435 119236.561718 0.000000 0.000000 0.000000 0.000000 0.000000 0.000000 0.000000 399129.572856 1632.871420 109063.449433 18836.227109 0.000000 0.000000 0.000000 0.000000 0.000000 0.000000 58985.072279 0.000000 0.000000 0.000000 0.000000 0.000000 79881.118893 0.000000 0.000000 0.000000 35686.141073 0.000000 0.000000 13405.933142 259658.285588 0.000000 0.000000 0.000000 0.000000 1770.626444 0.000000 0.000000 0.000000 0.000000 0.000000 0.000000 0.000000 38709.798892 138737.307227 0.000000 10370.316549 0.000000 0.000000 0.000000 0.000000 0.000000 0.000000 54640.992324 0.000000 0.000000 0.000000 0.000000 55761.693911 0.000000 97275.309997 0.000000 0.000000 0.000000 0.000000 0.000000 44775.373165 0.000000 0.000000 1348.704080 0.000000 231553.709218 0.000000 0.000000 144409.629503 0.000000 207592.005700 0.000000 0.000000 0.000000 0.000000 0.000000 0.000000 0.000000 0.000000 0.000000 0.000000 0.000000 0.000000 11067.879201 0.000000 112331.355072 9716.546182 0.000000 0.000000 0.000000 0.000000 0.000000 0.000000 119961.272417 0.000000 0.000000 0.000000 0.000000 0.000000 0.000000 0.000000 0.000000 0.000000 0.000000 0.000000 9626.691609 0.000000 0.000000 0.000000 0.000000 0.000000 0.000000 0.000000 0.000000 0.000000 0.000000 0.000000 0.000000 0.000000 0.000000 0.000000 5351.217505 141085.250573 0.000000 0.000000 0.000000 0.000000 0.000000 0.000000 105.151323 0.000000 50951.761062 83828.142713 0.000000 0.000000 0.000000 0.000000 6960.663133 0.000000 0.000000 0.000000 105270.198626 38927.493337 0.000000 35326.446795 0.000000 0.000000 0.000000 75410.401147 79437.740084 0.000000 0.000000 0.000000 156127.497601 0.000000 0.000000 0.000000 0.000000 120044.116092 0.000000 0.000000 0.000000 37256.044237 0.000000 0.000000 0.000000 0.000000 0.000000 0.000000 35934.954216 0.000000 0.000000 0.000000 0.000000 0.000000 23481.236145 9181.444352 0.000000 0.000000 0.000000 55604.414429 167705.909552 100225.481226 104395.197105 0.000000 233196.868989 0.000000 2853.218960 0.000000 0.000000 0.000000 68828.000666 0.000000 0.000000 88172.268699 49263.114820 0.000000 0.000000 0.000000 0.000000 0.000000 37319.848140 0.000000 0.000000 0.000000 224015.730568 0.000000 215960.851985 0.000000 0.000000 0.000000 0.000000 0.000000 0.000000 0.000000 166037.096475 0.000000 0.000000 0.000000 0.000000 0.000000 67371.277612 174310.988004 0.000000 0.000000 0.000000 0.000000 0.000000 0.000000 53247.069285 0.000000 0.000000 100778.630344 37190.575569 0.000000 0.000000 92568.049209 0.000000 11097.868849 0.000000 315348.557960 0.000000 0.000000 0.000000 0.000000 0.000000 0.000000 0.000000 0.000000 21049.957104 0.000000 56507.298720 0.000000 0.000000 0.000000 0.000000 0.000000 0.000000 0.000000 33130.190932 0.000000 0.000000 0.000000 0.000000 0.000000 0.000000 0.000000 50714.592968 80278.379109 0.000000 0.000000 119412.356953 0.000000 11059.238614 15525.425208 0.000000 0.000000 79490.187905 0.000000 0.000000 119360.324440 0.000000 159616.460297 18052.000215 0.000000 0.000000 0.000000 0.000000 127678.663605 0.000000 0.000000 291789.503146 0.000000 0.000000 0.000000 0.000000 0.000000 0.000000 0.000000 139403.124575 0.000000 0.000000 0.000000 0.000000 0.000000 0.000000 0.000000 0.000000 0.000000 0.000000 0.000000 0.000000 0.000000 4204.321533 0.000000 0.000000 169484.663922 25097.484135 0.000000 0.000000 0.000000 0.000000 234141.495546 0.000000 0.000000 0.000000 0.000000 0.000000 35189.614127 178783.223855 0.000000 0.000000 256783.319841 0.000000 0.000000 57038.838949 0.000000 0.000000 0.000000 0.000000 43608.541103 438.456840 51473.835409 0.000000 0.000000 23165.742341 25744.796133 53544.230941 166867.194863 0.000000 0.000000 0.000000 0.000000 0.000000 0.000000 0.000000 0.000000 0.000000 0.000000 4618.945054 0.000000 0.000000 0.000000 188598.168073 0.000000 0.000000 0.000000 0.000000 7492.176464 1661.659267 0.000000 0.000000 0.000000 0.000000 0.000000 0.000000 0.000000 0.000000 0.000000 0.000000 0.000000 13501.243906 0.000000 0.000000 0.000000 0.000000 0.000000 0.000000 0.000000 0.000000 0.000000 0.000000 197782.269097 65431.789884 0.000000 0.000000 0.000000 0.000000 0.000000 0.000000 0.000000 0.000000 0.000000 0.000000 0.000000 20965.861810 139944.250287 0.000000 0.000000 0.000000 0.000000 0.000000 10757.147884 12780.560675 0.000000 0.000000 0.000000 0.000000 0.000000 5832.405580 0.000000 0.000000 0.000000 0.000000 0.000000 0.000000 21981.314393 89700.349300 0.000000 0.000000 0.000000 0.000000 0.000000 18962.486006 79320.477161 0.000000 0.000000 0.000000 0.000000 0.000000 6854.103305 42395.475547 0.000000 0.000000 0.000000 0.000000 0.000000 12741.280163 50008.434031 0.000000 0.000000 0.000000 0.000000 0.000000 21187.241280 92909.197336 0.000000 0.000000 0.000000 0.000000 0.000000 6198.300172 48585.230100 0.000000 0.000000 0.000000 0.000000 0.000000 577.555931 0.000000 0.000000 0.000000 0.000000 0.000000 0.000000 25066.982304 23238.531283 0.000000 0.000000 0.000000 0.000000 0.000000 37724.510777 61314.165741 0.000000 0.000000 0.000000 0.000000 0.000000 9627.416941 22065.957818 0.000000 0.000000 0.000000 0.000000 0.000000 38575.750973 128260.617466 0.000000 0.000000 0.000000 0.000000 0.000000 69369.638532 206254.328391 0.000000 0.000000 0.000000 0.000000 0.000000 18653.997363 32286.492196 0.000000 0.000000 0.000000 0.000000 0.000000 7642.383128 43969.110849 0.000000 0.000000 0.000000 0.000000 0.000000 88.734723 0.000000 0.000000 0.000000 0.000000 0.000000 0.000000 0.000000 0.000000 0.000000 0.000000 0.000000 0.000000 0.000000 5972.570340 0.000000 0.000000 0.000000 0.000000 0.000000 0.000000 42435.655974 79277.902760 0.000000 0.000000 0.000000 0.000000 0.000000 45933.232073 76066.629018 0.000000 0.000000 0.000000 0.000000 0.000000 11018.412986 22019.732830 0.000000 0.000000 0.000000 0.000000 0.000000 25808.956152 128694.339405 0.000000 0.000000 0.000000 0.000000 0.000000 16207.952729 43244.383522 0.000000 0.000000 0.000000 0.000000 0.000000 3283.485253 0.000000 0.000000 0.000000 0.000000 0.000000 0.000000 26324.690562 67703.183308 0.000000 0.000000 0.000000 0.000000 0.000000 30102.235617 86761.887791 0.000000 0.000000 0.000000 0.000000 0.000000 1152.983503 0.000000 0.000000 0.000000 0.000000 0.000000 0.000000 12150.762477 10279.876358 0.000000 0.000000 0.000000 0.000000 0.000000 35270.090905 72042.408949 0.000000 0.000000 0.000000 0.000000 0.000000 69749.545366 195906.401525 0.000000 0.000000 0.000000 0.000000 0.000000 36445.720660 33538.119651 0.000000 0.000000 0.000000 0.000000 0.000000 14198.724361 0.000000 0.000000 0.000000 0.000000 0.000000 0.000000 47338.388686 125073.230125 0.000000 0.000000 0.000000 0.000000 0.000000 47428.667031 117880.156974 0.000000 0.000000 0.000000 0.000000 0.000000 79326.310234 297621.538761 0.000000 0.000000 0.000000 0.000000 0.000000 25366.619472 22117.931766 0.000000 0.000000 0.000000 0.000000 0.000000 0.000000 0.000000 0.000000 0.000000 0.000000 0.000000 0.000000 17867.698042 37010.748290 0.000000 0.000000 0.000000 0.000000 0.000000 86054.628425 456284.433094 0.000000 0.000000 0.000000 0.000000 0.000000 68981.403465 172545.959861 0.000000 0.000000 0.000000 0.000000 0.000000 10689.746473 28680.636639 0.000000 0.000000 0.000000 0.000000 0.000000 5113.702121 18927.283354 0.000000 0.000000 0.000000 0.000000 0.000000 23941.088255 8987.946019 0.000000 0.000000 0.000000 0.000000 0.000000 61106.792824 103339.524825 0.000000 0.000000 0.000000 0.000000 0.000000 13805.382800 0.000000 0.000000 0.000000 0.000000 0.000000 0.000000 5698.387875 0.000000 0.000000 0.000000 0.000000 0.000000 0.000000 46504.938645 117484.652251 0.000000 0.000000 0.000000 0.000000 0.000000 43819.200099 170316.117704 0.000000 0.000000 0.000000 0.000000 0.000000 6339.246826 0.000000 0.000000 0.000000 0.000000 0.000000 0.000000 6225.177856 19617.173141 0.000000 0.000000 0.000000 0.000000 0.000000 14189.950042 74737.902067 0.000000 0.000000 0.000000 0.000000 0.000000 8522.103631 13240.917352 0.000000 0.000000 0.000000 0.000000 0.000000 42975.471409 104223.358417 0.000000 0.000000 0.000000 0.000000 0.000000 67706.672769 263982.090490 0.000000 0.000000 0.000000 0.000000 0.000000 53624.398886 188415.747654 0.000000 0.000000 0.000000 0.000000 0.000000 67233.224799 158626.147543 0.000000 0.000000 0.000000 0.000000 0.000000 35130.611046 61797.364088 0.000000 0.000000 0.000000 0.000000 0.000000 46584.377999 53429.301865 0.000000 0.000000 0.000000 0.000000 0.000000 33809.072081 10264.345388 0.000000 0.000000 0.000000 0.000000 0.000000 445.655715 0.000000 0.000000 0.000000 0.000000 0.000000 0.000000 11722.681116 44420.954194 0.000000 0.000000 0.000000 0.000000 0.000000 25074.703733 134781.133727 0.000000 0.000000 0.000000 0.000000 0.000000 31939.739506 73685.200979 0.000000 0.000000 0.000000 0.000000 0.000000 49586.253079 91170.214941 0.000000 0.000000 0.000000 0.000000 0.000000 32532.499110 108483.610576 0.000000 0.000000 0.000000 0.000000 0.000000 37477.533642 293220.862814 0.000000 0.000000 0.000000 0.000000 0.000000 10098.231338 52996.987986 0.000000 0.000000 0.000000 0.000000 0.000000 2881.303364 0.000000 0.000000 0.000000 0.000000 0.000000 0.000000 5244.475599 15076.763694 0.000000 0.000000 0.000000 0.000000 0.000000 12989.366562 80555.465874 0.000000 0.000000 0.000000 0.000000 0.000000 14228.675127 73734.698151 0.000000 0.000000 0.000000 0.000000 0.000000 24103.108446 158739.475170 0.000000 0.000000 0.000000 0.000000 0.000000 67386.811315 359925.062291 0.000000 0.000000 0.000000 0.000000 0.000000 37985.974859 84848.989014 0.000000 0.000000 0.000000 0.000000 0.000000 20156.821567 114764.276758 0.000000 0.000000 0.000000 0.000000 0.000000 24583.334436 145323.954994 0.000000 0.000000 0.000000 0.000000 0.000000 18199.559563 50149.167721 0.000000 0.000000 0.000000 0.000000 0.000000 35754.786733 66432.148143 0.000000 0.000000 0.000000 0.000000 0.000000 17210.561004 31759.849424 0.000000 0.000000 0.000000 0.000000 0.000000 303.396990 0.000000 1094.518310 0.000000 0.000000 0.000000 0.000000 0.000000 0.000000 0.000000 0.000000 0.000000 0.000000 0.000000 0.000000 0.000000 0.000000 0.000000 0.000000 0.000000 0.000000 0.000000 0.000000 0.000000 0.000000 0.000000 0.000000 0.000000 0.000000 0.000000 0.000000 0.000000 0.000000 0.000000 0.000000 0.000000 0.000000 0.000000 0.000000 0.000000 0.000000 0.000000 0.000000 0.000000 0.000000 0.000000 0.000000 0.000000 0.000000 0.000000 0.000000 0.000000 0.000000 0.000000 0.000000 0.000000 0.000000 0.000000 0.000000 0.000000 0.000000 0.000000 0.000000 0.000000 0.000000 0.000000 0.000000 0.000000 0.000000 0.000000 0.000000 0.000000 0.000000 0.000000 0.000000 0.000000 0.000000 0.000000 0.000000 0.000000 0.000000 0.000000 0.000000 0.000000 0.000000 0.000000 0.000000 0.000000 0.000000 0.000000 0.000000 0.000000 0.000000 0.000000 0.000000 0.000000 0.000000 0.000000 0.000000 0.000000 0.000000 0.000000 0.000000 0.000000 0.000000 0.000000 0.000000 0.000000 0.000000 0.000000 0.000000 0.000000 0.000000 0.000000 0.000000 0.000000 0.000000 0.000000 0.000000 0.000000 0.000000 0.000000 0.000000 0.000000 0.000000 0.000000 0.000000 0.000000 0.000000 0.000000 0.000000 0.000000 0.000000 0.000000 0.000000 0.000000 0.000000 0.000000 0.000000 0.000000 0.000000 0.000000 0.000000 0.000000 0.000000 0.000000 0.000000 0.000000 0.000000 0.000000 0.000000 0.000000 0.000000 0.000000 0.000000 0.000000 0.000000 0.000000 0.000000 0.000000 0.000000 0.000000 0.000000 0.000000 0.000000 0.000000 0.000000 0.000000 0.000000
</DataArray>
<DataArray type="Float64" Name="Velocity" NumberOfComponents="3" format="ascii">