<VTKFile type="PolyData">
<PolyData>
<Piece NumberOfPoints="1840" NumberOfVerts="1840" NumberOfLines="0" NumberOfStrips="0" NumberOfPolys="0">
<PointData>
<DataArray type="Float64" Name="Pressure" format="ascii">
 0.000000 0.000000 0.000000 0.000000 0.000000 0.000000 0.000000 0.000000 0.000000 0.000000 0.000000 0.000000 0.000000 0.000000 0.000000 0.000000 0.000000 0.000000 0.000000 0.000000 0.000000 0.000000 0.000000 0.000000 0.000000 0.000000 0.000000 0.000000 0.000000 0.000000 0.000000 0.000000 0.000000 0.000000 0.000000 0.000000 0.000000 0.000000 0.000000 0.000000 0.000000 0.000000 0.000000 0.000000 0.000000 0.000000 0.000000 0.000000 0.000000 0.000000 0.000000 0.000000 0.000000 0.000000 0.000000 0.000000 0.000000 0.000000 0.000000 0.000000 0.000000 0.000000 0.000000 0.000000 0.000000 0.000000 0.000000 0.000000 0.000000 0.000000 0.000000 0.000000 0.000000 0.000000 0.000000 0.000000 0.000000 0.000000 0.000000 0.000000 0.000000 0.000000 0.000000 0.000000 0.000000 0.000000 0.000000 0.000000 0.000000 0.000000 0.000000 0.000000 0.000000 0.000000 0.000000 0.000000 0.000000 0.000000 0.000000 0.000000 0.000000 0.000000 0.000000 0.000000 0.000000 0.000000 0.000000 0.000000 0.000000 0.000000 0.000000 0.000000 0.000000 0.000000 0.000000 0.000000 23798.675363 71738.126597 48298.643994 41818.156649 24905.487721 17654.776736 17420.995494 17453.558264 18112.110942 14540.480381 8719.429624 4102.475422 1762.510133 704.792504 253.525374 62.670636 0.000000 0.000000 0.000000 0.000000 0.000000 0.000000 0.000000 0.000000 0.000000 0.000000 0.000000 0.000000 0.000000 0.000000 0.000000 0.000000 0.000000 0.000000 0.000000 0.000000 0.000000 0.000000 0.000000 0.000000 0.000000 0.000000 0.000000 0.000000 0.000000 0.000000 0.000000 0.000000 0.000000 0.000000 0.000000 0.000000 0.000000 0.000000 0.000000 0.000000 0.000000 86142.771730 336165.227916 243233.917770 250367.890351 217436.722339 195002.144599 196437.694388 189352.562952 202089.542757 172875.517611 107909.978517 51738.049863 22426.462643 9452.598958 3927.080007 1568.366728 543.150941 90.577426 0.000000 0.000000 0.000000 0.000000 0.000000 0.000000 0.000000 0.000000 0.000000 0.000000 0.000000 0.000000 0.000000 0.000000 0.000000 0.000000 0.000000 0.000000 0.000000 0.000000 0.000000 0.000000 0.000000 0.000000 0.000000 0.000000 0.000000 0.000000 0.000000 0.000000 0.000000 0.000000 0.000000 0.000000 0.000000 0.000000 0.000000 0.000000 0.000000 91625.128975 361904.576489 336165.227916 236865.876056 275873.393079 266515.234268 284567.217977 273229.310651 251187.762632 219816.186446 238688.816192 249965.428607 229153.654257 171605.337944 103907.635994 53904.821086 25172.128138 11137.967790 4789.715745 1995.402159 755.231718 211.700507 0.000000 0.000000 0.000000 0.000000 0.000000 0.000000 0.000000 0.000000 0.000000 0.000000 0.000000 0.000000 0.000000 0.000000 0.000000 0.000000 0.000000 0.000000 0.000000 0.000000 0.000000 0.000000 0.000000 0.000000 94473.267014 360691.191599 343009.161641 259805.338785 263180.843477 190941.264985 195878.354596 202869.774709 188606.171680 157907.206881 138443.857401 126016.486038 138334.478869 130800.738940 95934.502228 56952.415530 28486.622780 13048.351305 5774.577002 2513.702692 1055.619639 387.157546 78.779183 0.000000 0.000000 0.000000 0.000000 0.000000 0.000000 0.000000 0.000000 0.000000 0.000000 0.000000 0.000000 0.000000 0.000000 0.000000 0.000000 0.000000 0.000000 0.000000 0.000000 0.000000 0.000000 0.000000 87414.682187 372514.076314 374239.652955 273167.532599 281299.188185 199564.249232 223892.135960 222502.404976 214111.595211 216014.043213 186661.598275 154035.447646 158053.894174 143367.600924 108014.468474 67068.846358 34445.456256 15948.023219 7064.893040 3035.637289 1232.866073 408.594763 23.909105 0.000000 0.000000 0.000000 0.000000 0.000000 0.000000 0.000000 0.000000 0.000000 0.000000 0.000000 0.000000 0.000000 0.000000 0.000000 0.000000 0.000000 0.000000 0.000000 0.000000 0.000000 0.000000 0.000000 66647.042732 327830.668220 319193.425242 232284.731764 248844.157137 225422.185567 214751.884850 175993.053901 180800.479165 177698.149987 143550.056000 124708.579244 137197.848917 132940.284976 109184.898045 72599.508771 38807.186293 18359.983856 8231.945539 3588.532996 1536.506105 639.015474 249.986403 90.135223 29.408397 7.051191 0.000000 0.000000 0.000000 0.000000 0.000000 0.000000 0.000000 0.000000 0.000000 0.000000 0.000000 0.000000 0.000000 0.000000 0.000000 0.000000 0.000000 0.000000 0.000000 0.000000 68145.894096 337483.566931 324250.152640 210760.799849 244416.621569 207673.529614 186834.216623 191230.828586 207520.323484 189102.182588 148123.155478 126328.635139 133834.472999 130862.014605 112289.920829 77520.060938 42371.302973 20229.167487 9044.510036 3880.406464 1603.141285 621.568178 207.232602 36.123566 0.000000 0.000000 0.000000 0.000000 0.000000 0.000000 0.000000 0.000000 0.000000 0.000000 0.000000 0.000000 0.000000 0.000000 0.000000 0.000000 0.000000 0.000000 0.000000 0.000000 0.000000 0.000000 59981.943796 315424.589339 309565.302576 203030.356372 226366.376046 190129.070946 182177.209985 179403.117622 180903.505190 166219.505752 135026.777395 115591.856471 124270.439319 126509.536533 113813.795932 81493.438954 45664.558540 22163.633959 10059.509533 4419.422594 1912.063328 818.106107 348.386635 150.734466 67.760569 33.341617 19.026919 11.451473 5.019549 0.000000 0.000000 0.000000 0.000000 0.000000 0.000000 0.000000 0.000000 0.000000 0.000000 0.000000 0.000000 0.000000 0.000000 0.000000 0.000000 0.000000 54079.347150 285061.424065 278674.954970 189034.152488 215492.484874 191665.130344 180457.838027 170417.716382 174943.454795 164658.920477 130610.729294 108574.608959 117744.780739 122868.592503 113964.495854 83832.253198 47892.996283 23520.320726 10784.358121 4821.217877 2166.525932 1007.919073 508.374227 297.232619 209.680781 174.237530 159.561054 151.914919 145.911000 138.898018 129.938255 119.745508 108.435317 92.984887 82.240424 68.680267 92.053808 8.888114 78.381829 0.000000 0.000000 0.000000 0.000000 0.000000 0.000000 0.000000 50672.364434 272316.264892 266686.114807 183757.497800 203952.370659 172280.056692 161027.076284 158069.979562 166053.884520 155221.858001 121220.153425 101541.352593 112382.104341 119502.974680 113128.199164 84689.067637 48986.440806 24202.770029 11111.187184 4959.685515 2213.617006 1012.099302 492.083185 270.755329 178.697658 140.876883 124.973920 116.846193 110.439199 103.093669 93.136199 80.240261 65.991202 49.736688 31.299748 6.090829 6.556431 0.000000 39.555827 0.000000 0.000000 0.000000 0.000000 0.000000 0.000000 0.000000 47616.657382 255063.927773 248332.987716 170293.102963 189015.343065 165528.874137 157261.962822 152993.457895 157184.338432 145560.987039 113847.230348 96075.256253 107755.697909 116024.233600 111210.591205 84162.191439 49137.997168 24505.553135 11389.456775 5196.071386 2422.617279 1204.577321 675.686874 449.965229 356.313796 318.066942 302.218338 294.541547 288.785332 282.255866 273.470770 261.216067 245.512447 227.388511 207.951250 182.001533 158.146293 101.307261 113.229961 0.000000 0.000000 0.000000 0.000000 0.000000 0.000000 0.000000 45550.169059 242834.082842 234394.875305 160937.420564 178117.250973 157119.385444 149084.861256 144651.230253 147176.102326 136516.500988 107230.875374 91137.338843 103575.274474 112171.182066 107547.750258 81421.661054 47627.499652 23822.892146 11099.271886 5061.171556 2346.494378 1149.516818 627.931153 404.989229 312.396855 275.063415 260.094211 253.284465 248.615550 243.431791 236.440083 226.736894 213.492350 196.421734 176.804932 154.639528 133.568687 99.154984 96.912154 0.000000 0.000000 0.000000 0.000000 0.000000 0.000000 0.000000 44277.536494 237000.552208 226544.165288 153344.030395 167389.411972 144910.820849 137295.106264 136794.369493 139314.765622 128657.494891 101021.770125 86494.747543 99726.456853 108042.705313 102491.850163 76947.930618 44921.185117 22528.017927 10538.627049 4819.699272 2234.393959 1088.509130 587.227192 372.795485 284.123795 248.936557 235.293376 229.524767 225.977810 222.236421 217.125790 209.964424 200.177995 187.098098 170.407255 149.872781 127.114935 97.722069 76.994330 0.000000 0.000000 0.000000 0.000000 0.000000 0.000000 0.000000 43620.319148 227249.736103 207095.469637 138695.764775 154459.951173 141687.231924 133588.169054 130212.375891 129640.073780 119883.598999 95095.034980 81941.473602 95501.530391 102824.887808 95586.298473 70651.475251 41013.197972 20594.745015 9664.454562 4421.007169 2033.784251 967.851232 498.539725 297.529589 215.168672 183.240680 171.371609 166.736224 164.209238 161.737159 158.348605 153.437161 146.565750 137.327068 125.316752 109.997162 91.372728 67.906016 43.198822 0.000000 0.000000 0.000000 0.000000 0.000000 0.000000 0.000000 42116.016365 211935.208269 202873.662483 131309.504584 140981.601817 128428.590090 123778.783740 121648.565131 116013.343128 107021.995564 88205.703413 77868.670965 91119.488821 96439.808452 86958.748986 62845.277874 36157.024179 18162.045658 8548.508615 3908.475860 1778.492350 819.196782 392.336982 207.776880 132.473876 104.171885 94.308259 90.821286 89.137463 87.597575 85.492764 82.372097 77.844134 71.559217 63.250840 52.683619 39.833667 24.606585 8.250076 0.000000 0.000000 0.000000 0.000000 0.000000 0.000000 0.000000 44405.756273 216708.994383 188284.602768 116167.198873 126040.577089 119515.053945 117864.647220 122572.203563 113910.569408 98301.488674 80874.291859 72631.928722 85072.166397 87802.272542 76262.443306 53708.501511 30588.546511 15364.998402 7257.745116 3320.623479 1498.609484 671.082148 298.151848 133.943354 66.180932 41.279511 33.288322 30.837070 29.823836 28.959217 27.782221 26.027836 23.453895 19.844793 15.058997 9.074140 2.115833 0.000000 0.000000 0.000000 0.000000 0.000000 0.000000 0.000000 0.000000 0.000000 43654.145514 192426.527284 161139.885108 106667.444627 113198.926280 111451.452559 99554.479548 94043.564345 89253.780506 80189.601003 68654.810275 64698.039813 77828.123643 78570.790328 65144.118983 44352.637239 24875.084419 12436.652603 5872.210069 2682.941486 1202.208560 526.208215 218.446537 80.612661 23.060360 2.504296 0.000000 0.000000 0.000000 0.000000 0.000000 0.000000 0.000000 0.000000 0.000000 0.000000 0.000000 0.000000 0.000000 0.000000 0.000000 0.000000 0.000000 0.000000 0.000000 0.000000 39584.198640 171575.123856 155601.406992 85545.028295 91030.472924 108793.849567 114833.692700 103110.068726 85729.544570 78129.902291 69745.622130 61862.037074 69347.191496 65867.469261 51090.857305 33300.920889 18303.766623 9056.527165 4250.001635 1938.438499 868.512638 375.924451 147.714289 43.611997 0.333103 0.000000 0.000000 0.000000 0.000000 0.000000 0.000000 0.000000 0.000000 0.000000 0.000000 0.000000 0.000000 0.000000 0.000000 0.000000 0.000000 0.000000 0.000000 0.000000 0.000000 0.000000 46381.483081 182315.672281 110552.801175 77694.738848 79691.622682 77842.574534 61241.401216 57533.184702 46305.194824 38845.531141 42250.369355 40759.162293 47746.286617 47022.544560 36919.595764 24456.064020 13735.928716 6819.970239 3122.411067 1373.008971 594.550618 245.421488 86.589851 16.308714 0.000000 0.000000 0.000000 0.000000 0.000000 0.000000 0.000000 0.000000 0.000000 0.000000 0.000000 0.000000 0.000000 0.000000 0.000000 0.000000 0.000000 0.000000 0.000000 0.000000 0.000000 0.000000 42517.998105 148909.669812 97986.108178 52868.244351 66023.979890 92402.557967 83120.569520 80011.548521 77652.411058 60213.108323 57038.502854 50778.027341 47392.535985 40306.788228 28525.461801 16872.319661 7650.979159 1764.026652 0.000000 0.000000 0.000000 0.000000 0.000000 0.000000 0.000000 0.000000 0.000000 0.000000 0.000000 0.000000 0.000000 0.000000 0.000000 0.000000 0.000000 0.000000 0.000000 0.000000 0.000000 0.000000 0.000000 0.000000 0.000000 0.000000 0.000000 0.000000 38360.964074 127329.522810 657.446126 0.000000 0.000000 0.000000 0.000000 0.000000 0.000000 0.000000 0.000000 0.000000 0.000000 0.000000 0.000000 0.000000 0.000000 0.000000 0.000000 0.000000 0.000000 0.000000 0.000000 0.000000 0.000000 0.000000 0.000000 0.000000 0.000000 0.000000 0.000000 0.000000 0.000000 0.000000 0.000000 0.000000 0.000000 0.000000 0.000000 0.000000 0.000000 0.000000 0.000000 0.000000 0.000000 0.000000 35253.329272 104193.530789 0.000000 0.000000 0.000000 0.000000 0.000000 36744.010246 103682.493883 0.000000 0.000000 0.000000 0.000000 0.000000 12488.628010 44995.765604 0.000000 0.000000 0.000000 0.000000 0.000000 25071.554985 53503.033086 0.000000 0.000000 0.000000 0.000000 0.000000 31558.419204 5205.576252 0.000000 0.000000 0.000000 0.000000 0.000000 2010.111920 0.000000 0.000000 0.000000 0.000000 0.000000 0.000000 0.000000 0.000000 0.000000 0.000000 0.000000 0.000000 0.000000 0.000000 0.000000 0.000000 0.000000 0.000000 0.000000 0.000000 0.000000 0.000000 0.000000 0.000000 0.000000 0.000000 0.000000 0.000000 0.000000 0.000000 0.000000 0.000000 0.000000 0.000000 0.000000 0.000000 0.000000 0.000000 0.000000 0.000000 0.000000 0.000000 0.000000 0.000000 0.000000 0.000000 0.000000 0.000000 0.000000 0.000000 0.000000 0.000000 0.000000 0.000000 0.000000 0.000000 0.000000 0.000000 0.000000 0.000000 0.000000 0.000000 0.000000 0.000000 0.000000 0.000000 0.000000 0.000000 0.000000 0.000000 0.000000 0.000000 0.000000 0.000000 0.000000 0.000000 0.000000 0.000000 0.000000 0.000000 0.000000 0.000000 0.000000 0.000000 0.000000 0.000000 0.000000 0.000000 0.000000 0.000000 0.000000 0.000000 0.000000 0.000000 0.000000 0.000000 0.000000 0.000000 0.000000 0.000000 0.000000 0.000000 0.000000 0.000000 0.000000 0.000000 0.000000 0.000000 0.000000 0.000000 0.000000 0.000000 0.000000 0.000000 0.000000 0.000000 0.000000 0.000000 0.000000 0.000000 0.000000 0.000000 0.000000 0.000000 0.000000 0.000000 0.000000 0.000000 0.000000 0.000000 0.000000 0.000000 0.000000 0.000000 0.000000 0.000000 0.000000 0.000000 0.000000 0.000000 0.000000 0.000000 0.000000 0.000000 0.000000 0.000000 0.000000 0.000000 0.000000 0.000000 0.000000 0.000000 0.000000 0.000000 0.000000 0.000000 0.000000 0.000000 0.000000 0.000000 0.000000 0.000000 0.000000 0.000000 0.000000 0.000000 0.000000 0.000000 0.000000 0.000000 0.000000 0.000000 0.000000 0.000000 0.000000 0.000000 0.000000 0.000000 0.000000 0.000000 0.000000 0.000000 0.000000 0.000000 0.000000 0.000000 0.000000 0.000000 0.000000 0.000000 0.000000 0.000000 0.000000 0.000000 0.000000 0.000000 0.000000 0.000000 0.000000 0.000000 0.000000 0.000000 0.000000 0.000000 0.000000 0.000000 0.000000 0.000000 0.000000 0.000000 0.000000 0.000000 0.000000 0.000000 0.000000 0.000000 0.000000 0.000000 0.000000 0.000000 0.000000 0.000000 0.000000 0.000000 0.000000 0.000000 0.000000 0.000000 0.000000 0.000000 0.000000 0.000000 0.000000 0.000000 0.000000 0.000000 0.000000 0.000000 0.000000 0.000000 0.000000 0.000000 0.000000 0.000000 0.000000 0.000000 0.000000 0.000000 0.000000 0.000000 0.000000 0.000000 0.000000 0.000000 0.000000 0.000000 0.000000 0.000000 0.000000 0.000000 0.000000 0.000000 0.000000 0.000000 0.000000 0.000000 0.000000 0.000000 0.000000 0.000000 0.000000 0.000000 0.000000 0.000000 0.000000 0.000000 0.000000 0.000000 0.000000 0.000000 0.000000 0.000000 0.000000 0.000000 0.000000 0.000000 0.000000 0.000000 0.000000 0.000000 0.000000 0.000000 0.000000 0.000000 0.000000 0.000000 0.000000 0.000000 0.000000 0.000000 0.000000 0.000000 0.000000 0.000000 0.000000 0.000000 0.000000 0.000000 0.000000 0.000000 0.000000 0.000000 0.000000 0.000000 0.000000 0.000000 0.000000 0.000000 0.000000 0.000000 0.000000 0.000000 0.000000 0.000000 0.000000 0.000000 0.000000 0.000000 0.000000 0.000000 0.000000 0.000000 0.000000 0.000000 0.000000 0.000000 0.000000 0.000000 0.000000 0.000000 0.000000 0.000000 0.000000 0.000000 0.000000 0.000000 0.000000 0.000000 0.000000 0.000000 0.000000 0.000000 0.000000 0.000000 0.000000 0.000000 0.000000 0.000000 0.000000 0.000000 0.000000 0.000000 0.000000 0.000000 0.000000 0.000000 0.000000 0.000000 0.000000 0.000000 0.000000 0.000000 0.000000 0.000000 0.000000 0.000000 0.000000 0.000000 0.000000 0.000000 0.000000 0.000000 0.000000 0.000000 0.000000 0.000000 0.000000 0.000000 0.000000 0.000000 0.000000 0.000000 0.000000 0.000000 0.000000 0.000000 0.000000 0.000000 0.000000 0.000000 0.000000 0.000000 0.000000 0.000000 0.000000 0.000000 0.000000 0.000000 0.000000 0.000000 0.000000 0.000000 0.000000 0.000000 0.000000 0.000000 0.000000 0.000000 0.000000 0.000000 0.000000 0.000000 0.000000 0.000000 0.000000 0.000000 0.000000 0.000000 0.000000 0.000000 0.000000 0.000000 0.000000 0.000000 0.000000 0.000000 0.000000 0.000000 0.000000 0.000000 0.000000 0.000000 0.000000 0.000000 0.000000 0.000000 0.000000 0.000000 0.000000 0.000000 0.000000 0.000000 0.000000 0.000000 0.000000 0.000000 0.000000 0.000000 0.000000 0.000000 0.000000 0.000000 0.000000 0.000000 0.000000 0.000000 0.000000 0.000000 0.000000 0.000000 0.000000 0.000000 0.000000 0.000000 0.000000 0.000000 0.000000 0.000000 0.000000 0.000000 0.000000 0.000000 0.000000 0.000000 0.000000 0.000000 0.000000 0.000000 0.000000 0.000000 0.000000 0.000000 0.000000 0.000000 0.000000 0.000000 0.000000 0.000000 0.000000 0.000000 0.000000 0.000000 0.000000 0.000000 0.000000 0.000000 0.000000 0.000000 0.000000 0.000000 0.000000 0.000000 0.000000 0.000000 0.000000 0.000000 0.000000 0.000000 0.000000 0.000000 0.000000 0.000000 0.000000 0.000000 0.000000 0.000000 0.000000 0.000000 0.000000 0.000000 0.000000 0.000000 0.000000 0.000000 0.000000 0.000000 0.000000 0.000000 0.000000 0.000000 0.000000 0.000000 0.000000 0.000000 0.000000 0.000000 0.000000 0.000000 0.000000 0.000000 0.000000 0.000000 0.000000 0.000000 0.000000 0.000000 0.000000 0.000000 0.000000 0.000000 0.000000 0.000000 0.000000 0.000000 0.000000 0.000000 0.000000 0.000000 0.000000 0.000000 0.000000 0.000000 0.000000 0.000000 0.000000 0.000000 0.000000 0.000000 0.000000 0.000000 0.000000 0.000000 0.000000 0.000000 0.000000 0.000000 0.000000 0.000000 0.000000 0.000000 0.000000 0.000000 0.000000 0.000000 0.000000 0.000000 0.000000 0.000000 0.000000 0.000000 0.000000 0.000000 0.000000 0.000000 0.000000 0.000000 0.000000 0.000000 0.000000 0.000000 0.000000 0.000000 0.000000 0.000000 0.000000 0.000000 0.000000 0.000000 0.000000 0.000000 0.000000 0.000000 0.000000 0.000000 0.000000 0.000000 0.000000 0.000000 0.000000 0.000000 0.000000 0.000000 0.000000 0.000000 0.000000 0.000000 0.000000 0.000000 0.000000 0.000000 0.000000 0.000000 0.000000 0.000000 0.000000 0.000000 0.000000 0.000000 0.000000 0.000000 0.000000 0.000000 0.000000 0.000000 0.000000 0.000000 0.000000 0.000000 0.000000 0.000000 0.000000 0.000000 0.000000 0.000000 0.000000 0.000000 0.000000 0.000000 0.000000 0.000000 0.000000 0.000000 0.000000 0.000000 0.000000 0.000000 0.000000 0.000000 0.000000 0.000000 0.000000 0.000000 0.000000 0.000000 0.000000 0.000000 0.000000 0.000000 0.000000 0.000000 0.000000 0.000000 0.000000 0.000000 0.000000 0.000000 0.000000 0.000000 0.000000 0.000000
</DataArray>
<DataArray type="Float64" Name="Velocity" NumberOfComponents="3" format="ascii">