<VTKFile type="PolyData">
<PolyData>
<Piece NumberOfPoints="1840" NumberOfVerts="1840" NumberOfLines="0" NumberOfStrips="0" NumberOfPolys="0">
<PointData>
<DataArray type="Float64" Name="Pressure" format="ascii">
 0.000000 0.000000 0.000000 0.000000 0.000000 0.000000 0.000000 0.000000 0.000000 0.000000 0.000000 0.000000 0.000000 0.000000 0.000000 0.000000 0.000000 0.000000 0.000000 0.000000 0.000000 0.000000 0.000000 0.000000 0.000000 0.000000 0.000000 0.000000 0.000000 0.000000 0.000000 0.000000 0.000000 0.000000 0.000000 0.000000 0.000000 0.000000 0.000000 0.000000 0.000000 0.000000 0.000000 0.000000 0.000000 0.000000 0.000000 0.000000 0.000000 0.000000 0.000000 0.000000 0.000000 0.000000 0.000000 0.000000 0.000000 0.000000 0.000000 0.000000 0.000000 0.000000 0.000000 0.000000 0.000000 0.000000 0.000000 0.000000 0.000000 0.000000 0.000000 0.000000 0.000000 0.000000 0.000000 0.000000 0.000000 0.000000 0.000000 0.000000 0.000000 0.000000 0.000000 0.000000 0.000000 0.000000 0.000000 0.000000 0.000000 0.000000 0.000000 0.000000 0.000000 0.000000 0.000000 0.000000 0.000000 0.000000 0.000000 0.000000 0.000000 0.000000 0.000000 0.000000 0.000000 0.000000 0.000000 0.000000 0.000000 0.000000 0.000000 0.000000 0.000000 0.000000 0.000000 0.000000 23798.649835 71621.697024 56272.166349 88211.401206 99003.736451 67674.823586 75842.318564 46928.345716 31497.212212 19972.467080 17136.438641 45885.454272 16246.741978 0.000000 0.000000 0.000000 0.000000 0.000000 0.000000 0.000000 0.000000 0.000000 0.000000 0.000000 0.000000 0.000000 0.000000 0.000000 0.000000 0.000000 0.000000 0.000000 0.000000 0.000000 0.000000 0.000000 0.000000 0.000000 0.000000 0.000000 0.000000 0.000000 0.000000 0.000000 0.000000 0.000000 0.000000 0.000000 0.000000 0.000000 0.000000 0.000000 0.000000 0.000000 0.000000 0.000000 0.000000 76735.603520 239094.782155 168584.871818 295679.048451 342074.398166 281592.418465 246066.552739 121528.752889 116630.429480 80257.112156 15640.882224 45165.004616 2523.769452 0.000000 0.000000 0.000000 0.000000 0.000000 0.000000 0.000000 0.000000 0.000000 0.000000 0.000000 0.000000 0.000000 0.000000 0.000000 0.000000 0.000000 0.000000 0.000000 0.000000 0.000000 0.000000 0.000000 0.000000 0.000000 0.000000 0.000000 0.000000 0.000000 0.000000 0.000000 0.000000 0.000000 0.000000 0.000000 0.000000 0.000000 0.000000 0.000000 0.000000 0.000000 0.000000 0.000000 0.000000 75079.817211 192416.016354 239094.782155 197900.564940 283274.846673 185826.372356 172498.987906 188988.572727 270562.494828 93586.339052 144080.968558 106791.393864 329084.234925 155821.707727 77301.063929 179830.786190 109087.976400 85685.301094 115879.894462 152309.156365 69194.782901 71999.452683 196860.742649 13288.629817 212805.286677 28940.515830 97404.451201 6860.842427 58788.889319 62054.341216 81388.342267 79497.504091 73589.187707 25196.696967 0.000000 1117.842677 0.000000 0.000000 68113.030872 35178.439088 58724.949626 0.000000 0.000000 0.000000 0.000000 0.000000 65208.225333 167363.460409 221382.428445 82220.729047 263379.455081 128096.707998 135602.126659 110975.544712 116405.958609 205784.824659 76186.364879 95996.292771 132101.180923 177300.860254 139563.632386 172878.679255 284367.647193 165058.033763 125472.881337 71964.081109 85917.920507 180335.280060 132989.021003 130296.414339 152639.563019 24722.040880 100547.733175 148904.225027 87993.702894 27767.803079 0.000000 72594.549626 41349.929117 80575.471657 136760.554023 0.000000 27776.566732 0.000000 0.000000 2638.439678 0.000000 0.000000 0.000000 0.000000 0.000000 0.000000 53861.894854 167679.245006 204770.270475 175677.498003 153266.912826 189698.349275 160106.112582 188190.872377 126438.729089 116473.622363 205652.015960 131438.308202 143853.766120 128585.661490 164990.489574 185366.220387 115809.089078 84823.816808 120550.412172 118222.844378 155314.796427 66792.119911 120033.925924 84294.794035 120093.810881 73126.543696 105657.120775 194664.757174 121806.709539 43273.343306 126492.465106 134392.226590 118575.819005 45611.783342 107447.406999 31871.816388 17207.122280 51018.695085 0.000000 21192.322671 24313.461590 0.000000 0.000000 0.000000 0.000000 0.000000 71065.640419 214894.230562 216694.309746 141709.091199 177378.780964 162713.883896 122438.057523 67871.537152 96235.425156 87306.556932 133748.251194 163542.900990 140831.743877 142572.371094 133272.117504 146757.917138 232898.091338 121269.474491 146934.100939 104280.532786 127562.392721 166959.100814 104336.263132 102192.651872 161782.205033 67224.606801 106465.144198 42951.412497 95886.040161 65552.015054 124581.676800 35046.520682 22030.097974 25105.998036 49498.826490 32471.198174 65095.888868 61587.354292 0.000000 0.000000 0.000000 0.000000 0.000000 0.000000 0.000000 0.000000 71706.773868 254945.631863 131265.413680 51588.989150 82293.451479 63899.581078 56987.126329 77141.551025 63686.863238 55400.366886 201434.350284 156057.336258 136803.884996 211513.684436 106251.409071 74060.861984 105051.654180 78945.947588 108932.096139 77476.026518 111277.526069 88915.507016 71810.783026 130880.078111 74110.491581 76845.231761 81612.799219 36145.899630 20062.166014 49514.564761 101372.700873 39207.964795 106239.150639 58871.428786 103468.706030 25810.454053 141763.095116 18547.528436 0.000000 0.000000 21512.211080 0.000000 0.000000 0.000000 0.000000 0.000000 63987.974955 198281.315493 135148.763811 1374.665785 171319.732549 64037.110414 80483.657101 95788.574581 124837.334012 131670.414623 21062.548507 10855.608879 80717.594604 54893.750645 77507.784186 65192.428272 51557.308774 65045.877086 88520.572939 73442.734509 209513.456146 118683.201586 54819.636255 145860.772845 198478.886463 61124.924214 123624.045739 119344.021049 106132.300924 31900.847937 4387.903099 51797.895553 10974.858048 37921.416502 55342.162153 0.000000 27066.202162 0.000000 113143.216056 19533.672765 0.000000 0.000000 0.000000 0.000000 0.000000 0.000000 61655.166713 170093.851134 115450.428523 5990.230870 83349.018217 16445.034913 41354.617943 112841.764310 54184.182414 7377.137233 65691.270640 63527.023547 68340.478500 97195.265521 65926.119009 29664.576697 53842.580635 59004.148807 111455.660061 45657.306696 22083.619905 87603.308665 100865.871745 120802.339800 0.000000 53065.414108 37584.519467 84643.556306 56910.521128 66741.693510 36459.758676 41617.064383 55140.798835 0.000000 34061.094294 38468.929929 55215.943104 0.000000 32298.268316 6700.662634 5433.892051 0.000000 0.000000 0.000000 0.000000 0.000000 68740.582958 188960.377554 67822.397524 50948.729087 78027.726081 87610.517807 55252.612615 24408.086365 95455.963116 65684.608191 99316.463829 27227.862184 37999.286460 13228.096569 87105.684959 36337.179002 3275.848689 3719.418948 72764.086077 36882.953649 50592.075538 88640.183677 17433.320656 39379.315217 13921.153097 6108.481502 15096.281634 34600.478915 31434.769256 26464.971301 45995.927656 58139.127016 52731.750188 20138.377910 20451.164510 37267.749547 33883.521768 0.000000 0.000000 6741.477625 26663.771886 0.000000 0.000000 0.000000 0.000000 0.000000 70604.258113 193446.702625 28509.484701 44915.662941 0.000000 67594.084856 125896.642008 7516.910136 39038.041955 78017.163935 4303.266057 0.000000 7952.530821 43670.359876 51488.298005 16309.908404 27047.326009 64068.321168 89523.758580 45356.661048 14195.272460 8447.930497 0.000000 50049.670684 22596.434261 13458.290575 20756.899293 66923.261692 8798.832965 53929.733310 83456.688055 67347.565478 59433.223943 0.000000 54033.284504 41424.500212 45018.946097 0.000000 21967.704170 22824.234871 110549.969436 0.000000 0.000000 0.000000 0.000000 0.000000 48907.603541 122098.129827 67706.207264 37231.281607 49475.124472 4060.015349 48939.685716 67442.445393 21122.971031 9096.771294 18257.112069 13895.220303 17605.132828 54311.798067 91060.206585 28908.675243 15331.986990 53533.212824 4258.409158 1151.008024 4970.670655 19517.113695 29489.531133 71143.998632 0.000000 20955.720826 26833.531976 21598.507074 0.000000 11107.630836 0.000000 60786.572536 4808.669202 0.000000 0.000000 0.000000 14975.641177 105653.121339 0.000000 0.000000 11552.350716 0.000000 0.000000 0.000000 0.000000 0.000000 59037.209310 132670.761460 59721.762906 74793.582392 42455.277157 0.000000 0.000000 70540.628962 35239.870061 39142.818352 72475.697615 25096.717608 0.000000 15282.349507 17530.818748 3727.667782 7933.567691 44966.357698 6669.474319 8292.295723 16987.911429 77345.377947 3391.125630 30029.421110 33628.378039 47050.171917 10752.731015 40397.444784 53704.127902 1776.187375 41204.568780 816.681252 0.000000 19023.412190 25906.893715 0.000000 0.000000 45025.583781 0.000000 0.000000 50213.098993 0.000000 0.000000 0.000000 0.000000 0.000000 59398.916396 205717.447846 45399.354899 60501.358792 20644.630649 0.000000 41390.653626 79170.821183 0.000000 60203.510058 57753.832440 21399.657835 11753.786929 55392.602784 49831.333772 51737.563638 44013.371552 99982.394545 75827.374981 27368.130858 2656.927949 15128.133927 12313.346642 49994.044488 6823.286130 45217.105045 0.000000 0.000000 0.000000 9460.827109 53111.938990 0.000000 0.000000 19900.376404 0.000000 0.000000 32933.890837 0.000000 0.000000 0.000000 0.000000 0.000000 0.000000 0.000000 0.000000 0.000000 37675.151465 167758.495204 81441.479100 79443.660938 109709.330610 1638.620629 62321.955462 63756.948143 48386.333339 34704.319507 42462.815423 56796.478077 9570.009992 29988.786942 846.578106 26670.229437 12484.539225 38322.106484 24420.101326 14914.681978 36083.172442 0.000000 0.000000 20693.677572 58153.904745 0.000000 32420.307945 19221.663610 21638.223602 9273.877719 0.000000 48863.712933 0.000000 40416.211911 0.000000 0.000000 0.000000 0.000000 0.000000 34103.696958 17460.740160 0.000000 0.000000 0.000000 0.000000 0.000000 39056.215413 152205.310084 423850.796706 8609.926143 103388.736620 31567.879683 76486.195441 55718.694325 27093.873189 15798.002402 61369.656278 4581.600918 4196.318641 14352.577176 0.000000 0.000000 11397.777571 52110.086612 35827.509541 33908.271344 485.019451 28194.065004 0.000000 0.000000 11182.084520 0.000000 0.000000 33881.774991 6092.329525 0.000000 7709.734890 4701.561639 14544.143533 0.000000 10846.190846 0.000000 0.000000 0.000000 0.000000 0.000000 3540.867264 0.000000 0.000000 0.000000 0.000000 0.000000 71298.361812 210246.491036 39637.261436 124867.080039 281129.847086 66996.561773 122146.036999 37824.077345 168882.721351 23470.431949 33990.072842 25450.916688 18015.809936 37403.249324 48158.213986 61209.898097 15113.261239 63966.043244 18625.120613 26520.199604 0.000000 0.000000 1263.066650 48600.953881 54710.782643 71773.185590 17386.899855 0.000000 0.000000 0.000000 26689.188021 29095.746486 0.000000 0.000000 0.000000 0.000000 0.000000 0.000000 0.000000 0.000000 0.000000 0.000000 0.000000 0.000000 0.000000 0.000000 72596.655631 239109.391113 234288.920883 1099216.453011 1802600.379892 67265.290316 133534.991775 1139792.448137 177185.266294 60930.130528 93570.678801 58992.366088 0.000000 28224.389806 30219.947118 23167.164264 0.000000 0.000000 34519.312457 43540.823417 22092.564368 22382.088113 23155.986603 0.000000 5414.129083 0.000000 59876.409101 6406.677667 0.000000 0.000000 0.000000 0.000000 0.000000 53377.635762 0.000000 0.000000 0.000000 0.000000 0.000000 20880.896783 17.590264 0.000000 0.000000 0.000000 0.000000 0.000000 63977.970401 158475.594248 1413135.981667 461842.447676 1106652.887364 254552.752499 675441.541811 1143377.637116 117300.830597 731774.203389 16488.087035 125128.657135 23677.014023 51252.137202 81523.885322 75189.194749 59648.035524 21741.601945 45668.951623 5804.404245 5258.375504 66171.540096 0.000000 61811.339212 49375.533791 2441.068744 0.000000 2708.348481 0.000000 0.000000 0.000000 0.000000 0.000000 8282.818857 0.000000 0.000000 45183.198851 15148.516510 571.903788 0.000000 0.000000 0.000000 0.000000 0.000000 0.000000 0.000000 44435.116364 79363.007532 708403.542922 449327.996532 0.000000 726710.150903 1488681.584163 1605744.404636 9519.838297 1676482.836887 520171.489542 1143572.350827 108537.786903 31625.043746 579753.937552 663.313195 130773.343685 0.000000 37983.339723 123.156443 10696.604928 0.000000 13763.808705 19755.671939 0.000000 0.000000 0.000000 197.638224 6936.255231 0.000000 0.000000 0.000000 26412.397036 0.000000 0.000000 4142.646630 42958.251636 0.000000 0.000000 0.000000 0.000000 0.000000 0.000000 0.000000 0.000000 0.000000 63134.392651 127839.420238 451687.878945 758008.246484 0.000000 0.000000 842389.908752 227219.301389 1181383.487579 0.000000 811339.246524 17097.745255 1280559.339673 358885.973868 461923.902938 6273.994058 206460.133529 0.000000 0.000000 0.000000 0.000000 16072.315000 9770.373470 0.000000 12538.684393 6068.995585 0.000000 4555.043360 0.000000 10325.777167 0.000000 0.000000 0.000000 0.000000 0.000000 11716.958819 0.000000 0.000000 0.000000 0.000000 0.000000 0.000000 0.000000 0.000000 0.000000 0.000000 36850.815797 64174.199948 0.000000 0.000000 0.000000 0.000000 0.000000 63497.696051 131653.778751 0.000000 0.000000 0.000000 0.000000 0.000000 29557.439847 73057.679812 0.000000 0.000000 0.000000 0.000000 0.000000 32352.208449 93104.453878 0.000000 0.000000 0.000000 0.000000 0.000000 64568.440304 115711.108006 0.000000 0.000000 0.000000 0.000000 0.000000 36339.403092 58080.309277 0.000000 0.000000 0.000000 0.000000 0.000000 42955.698110 94234.345113 0.000000 0.000000 0.000000 0.000000 0.000000 52053.003328 120967.963806 0.000000 0.000000 0.000000 0.000000 0.000000 36218.089022 82450.936415 0.000000 0.000000 0.000000 0.000000 0.000000 45950.293952 125626.546299 0.000000 0.000000 0.000000 0.000000 0.000000 59843.078408 139592.666567 0.000000 0.000000 0.000000 0.000000 0.000000 13047.518135 32785.113266 0.000000 0.000000 0.000000 0.000000 0.000000 41999.532335 89914.148169 0.000000 0.000000 0.000000 0.000000 0.000000 57927.964453 96821.460263 0.000000 0.000000 0.000000 0.000000 0.000000 30642.716760 78541.876282 0.000000 0.000000 0.000000 0.000000 0.000000 23999.077382 65244.625324 0.000000 0.000000 0.000000 0.000000 0.000000 28668.868187 37223.093604 0.000000 0.000000 0.000000 0.000000 0.000000 61190.148830 109515.980219 0.000000 0.000000 0.000000 0.000000 0.000000 48643.741711 97595.076712 0.000000 0.000000 0.000000 0.000000 0.000000 25648.784028 56713.444036 0.000000 0.000000 0.000000 0.000000 0.000000 13729.698064 16821.815222 0.000000 0.000000 0.000000 0.000000 0.000000 53168.679166 83943.144431 0.000000 0.000000 0.000000 0.000000 0.000000 27798.252104 64342.953121 0.000000 0.000000 0.000000 0.000000 0.000000 6950.645458 41843.798301 0.000000 0.000000 0.000000 0.000000 0.000000 24955.834597 83210.465512 0.000000 0.000000 0.000000 0.000000 0.000000 21772.487758 51503.819311 0.000000 0.000000 0.000000 0.000000 0.000000 1364.617765 4699.330907 0.000000 0.000000 0.000000 0.000000 0.000000 20597.781699 44230.851033 0.000000 0.000000 0.000000 0.000000 0.000000 59342.361442 129718.702286 0.000000 0.000000 0.000000 0.000000 0.000000 21090.965350 52443.846342 0.000000 0.000000 0.000000 0.000000 0.000000 17462.222706 47537.052015 0.000000 0.000000 0.000000 0.000000 0.000000 22434.287439 74449.183919 0.000000 0.000000 0.000000 0.000000 0.000000 12718.449483 38232.901341 0.000000 0.000000 0.000000 0.000000 0.000000 18046.394182 54294.014910 0.000000 0.000000 0.000000 0.000000 0.000000 15330.061710 52092.317374 0.000000 0.000000 0.000000 0.000000 0.000000 9279.502260 50801.142044 0.000000 0.000000 0.000000 0.000000 0.000000 2025.463499 9482.863518 0.000000 0.000000 0.000000 0.000000 0.000000 6437.758366 44637.212560 0.000000 0.000000 0.000000 0.000000 0.000000 6652.769294 53929.437728 0.000000 0.000000 0.000000 0.000000 0.000000 6097.751203 41042.413128 0.000000 0.000000 0.000000 0.000000 0.000000 19871.327311 55273.660736 0.000000 0.000000 0.000000 0.000000 0.000000 35333.113535 70643.206705 0.000000 0.000000 0.000000 0.000000 0.000000 12385.684270 32973.060737 0.000000 0.000000 0.000000 0.000000 0.000000 4696.079322 30097.808336 0.000000 0.000000 0.000000 0.000000 0.000000 8276.879906 68607.518868 0.000000 0.000000 0.000000 0.000000 0.000000 3187.793806 34661.686035 0.000000 0.000000 0.000000 0.000000 0.000000 4671.063087 55958.817035 0.000000 0.000000 0.000000 0.000000 0.000000 4379.826511 34270.846396 0.000000 0.000000 0.000000 0.000000 0.000000 21673.472205 98898.500899 0.000000 0.000000 0.000000 0.000000 0.000000 17325.784057 73168.459060 0.000000 0.000000 0.000000 0.000000 0.000000 218.487385 0.000000 0.000000 0.000000 0.000000 0.000000 0.000000 22872.631916 50754.640581 0.000000 0.000000 0.000000 0.000000 0.000000 47337.383778 78077.005105 0.000000 0.000000 0.000000 0.000000 0.000000 18594.187830 20154.348133 0.000000 0.000000 0.000000 0.000000 0.000000 21305.010060 68220.797136 0.000000 0.000000 0.000000 0.000000 0.000000 13171.428570 52482.122788 0.000000 0.000000 0.000000 0.000000 0.000000 19507.134636 63683.726153 0.000000 0.000000 0.000000 0.000000 0.000000 22651.618541 85616.778554 0.000000 0.000000 0.000000 0.000000 0.000000 19851.863499 64088.592146 0.000000 0.000000 0.000000 0.000000 0.000000 16533.691867 28404.158117 0.000000 0.000000 0.000000 0.000000 0.000000 49164.942095 73247.069741 0.000000 0.000000 0.000000 0.000000 0.000000 33079.922584 93156.026293 0.000000 0.000000 0.000000 0.000000 0.000000 23547.348523 109994.391944 0.000000 0.000000 0.000000 0.000000 0.000000 24339.004585 87699.482695 0.000000 0.000000 0.000000 0.000000 0.000000 9832.432544 41744.756917 0.000000 0.000000 0.000000 0.000000 0.000000 23818.586519 88753.194847 0.000000 0.000000 0.000000 0.000000 0.000000 22993.333706 79574.714389 0.000000 0.000000 0.000000 0.000000 0.000000 19504.907368 71782.045999 0.000000 0.000000 0.000000 0.000000 0.000000 22803.648571 71354.899751 0.000000 0.000000 0.000000 0.000000 0.000000 20473.134026 81022.385392 0.000000 0.000000 0.000000 0.000000 0.000000 18705.056821 64070.586476 0.000000 0.000000 0.000000 0.000000 0.000000 26751.187755 165296.215023 0.000000 0.000000 0.000000 0.000000 0.000000 34207.904877 329417.349623 0.000000 0.000000 0.000000 0.000000 0.000000 19414.789845 138109.632861 0.000000 0.000000 0.000000 0.000000 0.000000 39145.942159 169735.271662 0.000000 0.000000 0.000000 0.000000 0.000000 44808.359470 240405.291882 0.000000 0.000000 0.000000 0.000000 0.000000 10685.100289 18364.955124 0.000000 0.000000 0.000000 0.000000 0.000000 48612.419051 69619.542820 0.000000 0.000000 0.000000 0.000000 0.000000 83349.046074 530663.433585 0.000000 0.000000 0.000000 0.000000 0.000000 120102.112047 1437094.763591 0.000000 0.000000 0.000000 0.000000 1401.010022 207126.005755 1424250.627919 0.000000 0.000000 0.000000 0.000000 0.000000 44703.890313 146632.241367 79842.753196 68133.795766 6131.164961 17264.427555 110550.828015 22631.834092 0.000000 0.000000 0.000000 0.000000 0.000000 0.000000 0.000000 0.000000 0.000000 0.000000 0.000000 0.000000 0.000000 0.000000 0.000000 0.000000 0.000000 0.000000 0.000000 0.000000 0.000000 0.000000 0.000000 0.000000 0.000000 0.000000 0.000000 0.000000 0.000000 0.000000 0.000000 0.000000 0.000000 0.000000 0.000000 0.000000 0.000000 0.000000 0.000000 0.000000 0.000000 0.000000 0.000000 0.000000 0.000000 0.000000 0.000000 0.000000 0.000000 0.000000 0.000000 0.000000 0.000000 0.000000 0.000000 0.000000 0.000000 0.000000 0.000000 0.000000 0.000000 0.000000 0.000000 0.000000 0.000000 0.000000 0.000000 0.000000 0.000000 0.000000 0.000000 0.000000 0.000000 0.000000 0.000000 0.000000 0.000000 0.000000 0.000000 0.000000 0.000000 0.000000 0.000000 0.000000 0.000000 0.000000 0.000000 0.000000 0.000000 0.000000 0.000000 0.000000 0.000000 0.000000 0.000000 0.000000 0.000000 0.000000 0.000000 0.000000 0.000000 0.000000 0.000000 0.000000 0.000000 0.000000 0.000000 0.000000 0.000000 0.000000 0.000000 0.000000 0.000000 0.000000 0.000000 0.000000 0.000000 0.000000 0.000000 0.000000 0.000000 0.000000 0.000000 0.000000 0.000000 0.000000 0.000000 0.000000 0.000000 0.000000 0.000000 0.000000 0.000000 0.000000 0.000000 0.000000 0.000000 0.000000 0.000000 0.000000 0.000000 0.000000 0.000000 0.000000 0.000000 0.000000 0.000000 0.000000 0.000000 0.000000 0.000000 0.000000 0.000000 0.000000 0.000000 0.000000 0.000000 0.000000 0.000000 0.000000 0.000000
</DataArray>
<DataArray type="Float64" Name="Velocity" NumberOfComponents="3" format="ascii">