<VTKFile type="PolyData">
<PolyData>
<Piece NumberOfPoints="1840" NumberOfVerts="1840" NumberOfLines="0" NumberOfStrips="0" NumberOfPolys="0">
<PointData>
<DataArray type="Float64" Name="Pressure" format="ascii">
 0.000000 0.000000 0.000000 0.000000 0.000000 0.000000 0.000000 0.000000 0.000000 0.000000 0.000000 0.000000 0.000000 0.000000 0.000000 0.000000 0.000000 0.000000 0.000000 0.000000 0.000000 0.000000 0.000000 0.000000 0.000000 0.000000 0.000000 0.000000 0.000000 0.000000 0.000000 0.000000 0.000000 0.000000 0.000000 0.000000 0.000000 0.000000 0.000000 0.000000 0.000000 0.000000 0.000000 0.000000 0.000000 0.000000 0.000000 0.000000 0.000000 0.000000 0.000000 0.000000 0.000000 0.000000 0.000000 0.000000 0.000000 0.000000 0.000000 0.000000 0.000000 0.000000 0.000000 0.000000 0.000000 0.000000 0.000000 0.000000 0.000000 0.000000 0.000000 0.000000 0.000000 0.000000 0.000000 0.000000 0.000000 0.000000 0.000000 0.000000 0.000000 0.000000 0.000000 0.000000 0.000000 0.000000 0.000000 0.000000 0.000000 0.000000 0.000000 0.000000 0.000000 0.000000 0.000000 0.000000 0.000000 0.000000 0.000000 0.000000 0.000000 0.000000 0.000000 0.000000 0.000000 0.000000 0.000000 0.000000 0.000000 0.000000 0.000000 0.000000 0.000000 0.000000 0.000000 0.000000 14230.736781 65692.707842 36428.610348 27407.759213 22490.418644 1366.030768 0.000000 0.000000 0.000000 0.000000 0.000000 0.000000 0.000000 0.000000 0.000000 0.000000 0.000000 0.000000 0.000000 0.000000 0.000000 0.000000 0.000000 0.000000 0.000000 0.000000 0.000000 0.000000 0.000000 0.000000 0.000000 0.000000 0.000000 0.000000 0.000000 0.000000 0.000000 0.000000 0.000000 0.000000 0.000000 0.000000 0.000000 0.000000 0.000000 0.000000 0.000000 0.000000 0.000000 0.000000 0.000000 0.000000 0.000000 0.000000 0.000000 0.000000 0.000000 40253.685478 194150.756616 56765.632643 80410.975960 67780.415577 0.000000 0.000000 0.000000 0.000000 0.000000 0.000000 0.000000 0.000000 0.000000 0.000000 0.000000 0.000000 0.000000 0.000000 0.000000 0.000000 0.000000 0.000000 0.000000 0.000000 0.000000 0.000000 0.000000 0.000000 0.000000 0.000000 0.000000 0.000000 0.000000 0.000000 0.000000 0.000000 0.000000 0.000000 0.000000 0.000000 0.000000 0.000000 0.000000 0.000000 0.000000 0.000000 0.000000 0.000000 0.000000 0.000000 0.000000 0.000000 0.000000 0.000000 0.000000 0.000000 32338.385151 140782.918915 186868.107703 65342.778548 105958.911778 55201.494075 11739.449245 0.000000 49276.269669 22486.871771 42781.321896 0.000000 70729.148429 0.000000 0.000000 33382.356955 0.000000 16713.540019 0.000000 33797.592835 14267.730306 71993.517398 0.000000 24359.447483 0.000000 0.000000 88531.202737 0.000000 0.000000 8895.048694 0.000000 19250.539733 17714.613732 0.000000 18744.239489 0.000000 0.000000 24917.633543 0.000000 15211.079371 1315.869532 0.000000 0.000000 0.000000 0.000000 0.000000 36268.252490 152925.814486 101951.541720 0.000000 41261.537594 0.000000 21853.314689 0.000000 55939.610769 15432.180684 0.000000 129214.087023 0.000000 76621.793154 20967.300001 17344.359185 0.000000 65811.349421 56121.623307 0.000000 0.000000 57114.424508 50664.294360 0.000000 51528.387216 0.000000 0.000000 0.000000 0.000000 0.000000 0.000000 0.000000 98275.982730 16729.026109 0.000000 0.000000 12728.187579 61231.623741 19149.557049 62325.255353 0.000000 0.000000 0.000000 0.000000 0.000000 0.000000 21801.921746 91993.946929 84875.178067 0.000000 41976.685499 45083.672758 19845.433357 79581.315687 35545.879395 9087.615205 0.000000 38384.230358 6263.813453 0.000000 46596.357028 23063.982967 19945.203659 3761.079035 14078.386696 13426.668397 61255.234581 38190.076475 107571.362280 53744.923473 36600.496937 0.000000 51166.884293 850.852442 24206.476473 0.000000 0.000000 31769.061372 48821.997736 0.000000 0.000000 27092.582078 7901.388672 8133.565984 0.000000 0.000000 50237.144522 0.000000 0.000000 0.000000 0.000000 0.000000 8208.735200 53848.570187 52266.747790 52984.440702 72602.125667 0.000000 9573.972982 1167.043474 44487.466788 3960.517100 33655.931269 91069.412248 42319.274299 749.553841 1677.734177 37010.476592 18374.299813 38257.789013 50764.710918 23212.744434 11938.957191 16000.829958 13761.418409 15202.596734 88739.290464 38823.370807 36012.431571 0.000000 15869.114866 0.000000 0.000000 6116.156887 0.000000 24474.925375 0.000000 911.577595 22263.498378 0.000000 22608.135919 45075.911753 0.000000 0.000000 0.000000 0.000000 0.000000 0.000000 5768.941406 52810.887411 116459.754539 651.040526 45540.821453 91620.490677 52081.731003 43883.287121 91391.679742 0.000000 88080.961878 17923.432381 21305.040484 110473.171937 44209.325519 87400.537102 66024.442607 34765.697135 0.000000 0.000000 4445.290764 36741.746336 21230.800014 28637.883882 0.000000 0.000000 12483.254682 35558.995087 15452.203170 39033.774901 44589.412480 67878.394008 0.000000 0.000000 2374.713516 40686.977771 0.000000 59432.659987 0.000000 10538.028208 0.000000 0.000000 0.000000 0.000000 0.000000 0.000000 18971.039253 100228.102664 44917.990694 0.000000 124385.317139 25322.370539 31574.630457 28983.505589 43851.967211 26198.431287 104470.171597 0.000000 70521.227274 53416.957944 0.000000 0.000000 61623.589210 0.000000 39584.546324 0.000000 31441.581772 0.000000 3968.783473 4816.929209 0.000000 9447.966093 10033.577902 37443.316627 15738.777519 0.000000 0.000000 0.000000 0.000000 11595.958955 0.000000 35978.205131 29658.196435 14478.201491 0.000000 13678.868042 0.000000 0.000000 0.000000 0.000000 0.000000 0.000000 49647.005905 125497.984315 95431.134585 38194.897052 100073.472303 153968.731853 0.000000 102463.177818 81172.214932 52905.406984 70317.011752 0.000000 17399.489196 110460.647774 0.000000 68572.959188 39596.547586 27493.183838 28770.729592 107339.269449 5530.275081 9107.967566 63240.786832 80906.388448 0.000000 21925.902851 40318.531441 0.000000 22862.550685 28024.929013 8539.792482 0.000000 0.000000 36155.140015 17719.967901 25231.484245 54369.416667 0.000000 53079.935706 0.000000 4562.182463 0.000000 0.000000 0.000000 0.000000 0.000000 54831.952516 78192.270339 55346.081495 179924.154651 55811.082781 11988.603284 36467.254453 0.000000 0.000000 39766.874312 27971.119715 61011.576540 0.000000 0.000000 0.000000 0.000000 0.000000 104597.902571 25280.403442 86752.020468 14268.184241 16412.417580 0.000000 0.000000 0.000000 0.000000 0.000000 0.000000 57052.663252 0.000000 0.000000 33663.898075 64528.788714 0.000000 24067.521355 0.000000 0.000000 0.000000 0.000000 9607.900431 18079.977748 0.000000 0.000000 0.000000 0.000000 0.000000 12743.663656 24920.785853 149202.122435 21938.276691 237924.581426 51592.633762 159284.797959 0.000000 11273.965362 39557.344458 36690.703005 0.000000 61377.058591 40405.204790 4081.456961 5343.711571 51224.501173 0.000000 90606.285270 33183.658640 69127.301244 51043.938005 13072.056059 155820.034348 0.000000 6442.860764 107370.010133 33754.462267 70339.404042 0.000000 56508.229788 6511.346223 0.000000 0.000000 7287.934434 27909.382723 26670.233987 0.000000 0.000000 0.000000 0.000000 0.000000 0.000000 0.000000 0.000000 0.000000 10715.721875 59894.069894 32292.423658 1012.235323 0.000000 0.000000 266853.702617 34368.392553 0.000000 228710.192141 0.000000 0.000000 0.000000 31612.547722 0.000000 49041.762418 0.000000 0.000000 82765.184312 0.000000 10738.438689 0.000000 25981.289665 40264.460112 0.000000 0.000000 18256.900398 0.000000 0.000000 21917.004676 56936.467026 0.000000 29867.480624 15186.002181 0.000000 0.000000 47037.159236 7492.543561 30460.314575 0.000000 0.000000 0.000000 0.000000 0.000000 0.000000 0.000000 20349.687165 125911.523646 418225.192045 0.000000 164405.963958 0.000000 158246.815644 0.000000 0.000000 93909.239459 0.000000 0.000000 115644.141975 76333.440457 0.000000 131050.273517 0.000000 0.000000 0.000000 0.000000 0.000000 91290.229678 63044.377901 14289.683284 40032.312131 41257.865885 62424.389911 33388.620403 17910.559070 37409.359107 26711.129444 0.000000 0.000000 64651.363594 121428.105667 0.000000 37177.676771 44534.791426 10699.998820 0.000000 0.000000 0.000000 0.000000 0.000000 0.000000 0.000000 30530.360981 119869.051143 0.000000 285940.294877 0.000000 0.000000 0.000000 0.000000 0.000000 239459.553532 0.000000 85843.335190 138223.935414 93129.766296 142699.853392 186297.105995 0.000000 29902.686094 479813.899979 0.000000 61470.185907 0.000000 30987.792195 0.000000 13688.201052 0.000000 0.000000 1053.483431 13559.833126 0.000000 49759.638708 8806.831655 26169.376206 13404.509510 85885.892776 121112.589488 0.000000 0.000000 0.000000 0.000000 31180.689168 0.000000 0.000000 0.000000 0.000000 0.000000 12514.752908 38556.539531 0.000000 0.000000 0.000000 0.000000 0.000000 0.000000 0.000000 93033.676763 0.000000 0.000000 92327.882508 337887.711462 0.000000 0.000000 45372.389516 168844.298654 357051.761227 263633.617829 90727.567773 0.000000 350719.796987 35215.012716 0.000000 0.000000 172544.102203 21254.850286 101214.112617 0.000000 0.000000 50147.414682 24452.200225 92565.567948 0.000000 7805.461324 55294.170197 0.000000 12419.239906 0.000000 20757.366860 0.000000 0.000000 0.000000 0.000000 0.000000 12478.620601 54401.053263 64906.588958 0.000000 65451.463548 292083.561698 0.000000 0.000000 0.000000 0.000000 0.000000 0.000000 0.000000 0.000000 0.000000 0.000000 0.000000 0.000000 0.000000 0.000000 139009.943606 124925.617671 7366.942897 223758.369665 147653.283770 59534.446663 92381.300992 0.000000 1950.817387 34716.030100 0.000000 4981.138185 0.000000 17257.246868 54690.542185 4519.999099 0.000000 0.000000 27800.217988 24191.301256 0.000000 0.000000 0.000000 0.000000 0.000000 0.000000 10249.141162 49779.627162 0.000000 132965.229013 0.000000 0.000000 0.000000 0.000000 0.000000 0.000000 143555.864814 0.000000 0.000000 0.000000 233260.863041 172159.164600 0.000000 25708.637344 0.000000 0.000000 0.000000 0.000000 0.000000 0.000000 0.000000 0.000000 49852.060031 35291.346241 101152.791735 29172.230520 332245.053394 0.000000 137943.604030 0.000000 0.000000 59826.724273 0.000000 0.000000 14411.836577 0.000000 64087.478871 0.000000 0.000000 0.000000 0.000000 0.000000 3680.589138 26984.110884 0.000000 0.000000 0.000000 284825.851610 0.000000 0.000000 0.000000 0.000000 0.000000 0.000000 0.000000 0.000000 65913.829043 0.000000 0.000000 0.000000 0.000000 0.000000 0.000000 0.000000 0.000000 0.000000 0.000000 0.000000 0.000000 0.000000 0.000000 0.000000 0.000000 0.000000 0.000000 0.000000 376468.593762 0.000000 0.000000 0.000000 35952.051508 0.000000 28614.987331 0.000000 0.000000 0.000000 0.000000 0.000000 6784.839010 61129.520067 0.000000 0.000000 0.000000 0.000000 0.000000 0.000000 0.000000 0.000000 0.000000 0.000000 0.000000 0.000000 0.000000 0.000000 0.000000 0.000000 0.000000 0.000000 0.000000 0.000000 0.000000 0.000000 0.000000 0.000000 0.000000 0.000000 0.000000 0.000000 0.000000 81225.761943 182749.109100 0.000000 0.000000 139765.831796 39297.441820 0.000000 0.000000 39936.747593 5500.773221 0.000000 0.000000 0.000000 0.000000 0.000000 5199.931761 37433.155941 0.000000 0.000000 0.000000 0.000000 118060.737518 118060.737518 0.000000 114826.617361 0.000000 0.000000 0.000000 0.000000 51439.697527 0.000000 0.000000 0.000000 0.000000 0.000000 0.000000 0.000000 0.000000 0.000000 11983.557800 0.000000 0.000000 0.000000 0.000000 0.000000 0.000000 0.000000 0.000000 0.000000 0.000000 0.000000 57847.241074 1225.958546 0.000000 244191.210760 0.000000 0.000000 0.000000 0.000000 0.000000 0.000000 14666.220546 58269.060339 0.000000 0.000000 0.000000 0.000000 0.000000 0.000000 46913.175408 0.000000 0.000000 0.000000 0.000000 0.000000 0.000000 0.000000 0.000000 0.000000 0.000000 0.000000 0.000000 0.000000 0.000000 0.000000 0.000000 0.000000 0.000000 0.000000 0.000000 0.000000 0.000000 0.000000 0.000000 0.000000 0.000000 0.000000 298135.905571 0.000000 0.000000 0.000000 134428.825644 0.000000 0.000000 0.000000 0.000000 0.000000 25202.824158 58555.275568 0.000000 0.000000 0.000000 0.000000 0.000000 41539.993638 94781.385233 0.000000 0.000000 0.000000 0.000000 0.000000 44409.069357 84065.393568 0.000000 0.000000 0.000000 0.000000 0.000000 41795.463100 102539.540112 0.000000 0.000000 0.000000 0.000000 0.000000 7290.621309 19979.316149 0.000000 0.000000 0.000000 0.000000 0.000000 7284.241654 5746.797340 0.000000 0.000000 0.000000 0.000000 0.000000 45778.629574 95568.106469 0.000000 0.000000 0.000000 0.000000 0.000000 31234.782861 97039.098175 0.000000 0.000000 0.000000 0.000000 0.000000 29239.725902 77980.080982 0.000000 0.000000 0.000000 0.000000 0.000000 46462.385935 87224.405444 0.000000 0.000000 0.000000 0.000000 0.000000 12006.976154 19192.267612 0.000000 0.000000 0.000000 0.000000 0.000000 19134.019872 54570.265903 0.000000 0.000000 0.000000 0.000000 0.000000 16914.143031 34807.021662 0.000000 0.000000 0.000000 0.000000 0.000000 21314.194679 35482.020291 0.000000 0.000000 0.000000 0.000000 0.000000 63078.094133 118125.589418 0.000000 0.000000 0.000000 0.000000 0.000000 31268.687776 66914.146144 0.000000 0.000000 0.000000 0.000000 0.000000 20203.736255 108512.225978 0.000000 0.000000 0.000000 0.000000 0.000000 10864.210805 51075.801968 0.000000 0.000000 0.000000 0.000000 0.000000 3650.339639 44755.345565 0.000000 0.000000 0.000000 0.000000 0.000000 9763.773736 79522.477907 0.000000 0.000000 0.000000 0.000000 0.000000 15598.759158 60106.351179 0.000000 0.000000 0.000000 0.000000 0.000000 8424.540680 25245.005935 0.000000 0.000000 0.000000 0.000000 0.000000 19010.909910 62354.444174 0.000000 0.000000 0.000000 0.000000 0.000000 21561.477008 80412.254979 0.000000 0.000000 0.000000 0.000000 0.000000 13425.607634 57137.616943 0.000000 0.000000 0.000000 0.000000 0.000000 21697.117885 75839.089517 0.000000 0.000000 0.000000 0.000000 0.000000 15435.533303 49321.889077 0.000000 0.000000 0.000000 0.000000 0.000000 4997.541043 35354.133479 0.000000 0.000000 0.000000 0.000000 0.000000 33966.801859 67720.226094 0.000000 0.000000 0.000000 0.000000 0.000000 57746.400729 125004.302297 0.000000 0.000000 0.000000 0.000000 0.000000 34216.992087 142337.532534 0.000000 0.000000 0.000000 0.000000 0.000000 17385.765681 86084.943141 0.000000 0.000000 0.000000 0.000000 0.000000 4080.424229 19338.947221 0.000000 0.000000 0.000000 0.000000 0.000000 9828.849815 54308.664697 0.000000 0.000000 0.000000 0.000000 0.000000 11888.138093 36063.979622 0.000000 0.000000 0.000000 0.000000 0.000000 32176.640702 59361.980227 0.000000 0.000000 0.000000 0.000000 0.000000 63732.835463 121870.934292 0.000000 0.000000 0.000000 0.000000 0.000000 28616.747461 85827.345225 0.000000 0.000000 0.000000 0.000000 0.000000 11675.228428 35314.952807 0.000000 0.000000 0.000000 0.000000 0.000000 43493.093349 95838.990605 0.000000 0.000000 0.000000 0.000000 0.000000 33480.605859 109624.152727 0.000000 0.000000 0.000000 0.000000 0.000000 14254.062097 82261.381425 0.000000 0.000000 0.000000 0.000000 0.000000 6002.600725 56903.983568 0.000000 0.000000 0.000000 0.000000 0.000000 8127.038510 43875.526560 0.000000 0.000000 0.000000 0.000000 0.000000 29147.309484 146195.421087 0.000000 0.000000 0.000000 0.000000 0.000000 29035.627143 135245.171289 0.000000 0.000000 0.000000 0.000000 0.000000 18445.416607 80027.162916 0.000000 0.000000 0.000000 0.000000 0.000000 15169.438666 65765.444695 0.000000 0.000000 0.000000 0.000000 0.000000 9091.117685 43670.275165 0.000000 0.000000 0.000000 0.000000 0.000000 11040.023448 41784.503771 0.000000 0.000000 0.000000 0.000000 0.000000 4964.189852 21472.753257 0.000000 0.000000 0.000000 0.000000 0.000000 2336.275645 11572.137998 0.000000 0.000000 0.000000 0.000000 0.000000 11715.433171 34760.775220 0.000000 0.000000 0.000000 0.000000 0.000000 5097.836151 17649.839181 0.000000 0.000000 0.000000 0.000000 0.000000 347.483402 15586.335136 0.000000 0.000000 0.000000 0.000000 0.000000 7810.896899 51725.940739 0.000000 0.000000 0.000000 0.000000 0.000000 6685.055942 31737.482710 0.000000 0.000000 0.000000 0.000000 0.000000 6966.484345 31853.797263 0.000000 0.000000 0.000000 0.000000 0.000000 15229.833329 82022.969129 0.000000 0.000000 0.000000 0.000000 0.000000 17458.371717 100010.227976 0.000000 0.000000 0.000000 0.000000 0.000000 20038.219904 138150.939579 0.000000 0.000000 0.000000 0.000000 0.000000 9722.102559 82652.443093 0.000000 0.000000 0.000000 0.000000 0.000000 2249.169263 45154.206681 0.000000 0.000000 0.000000 0.000000 0.000000 7249.424615 15260.842914 0.000000 0.000000 0.000000 0.000000 0.000000 14751.991126 53322.661930 0.000000 0.000000 0.000000 0.000000 0.000000 5588.223795 45702.294491 0.000000 0.000000 0.000000 0.000000 0.000000 809.382080 1482.697807 0.000000 0.000000 0.000000 0.000000 0.000000 407.367905 24285.417370 0.000000 0.000000 0.000000 0.000000 0.000000 163.918400 5336.315446 0.000000 0.000000 0.000000 0.000000 0.000000 11172.372620 7186.912341 0.000000 0.000000 0.000000 0.000000 0.000000 31219.952168 104547.482466 0.000000 0.000000 0.000000 0.000000 0.000000 40296.825576 168492.160831 0.000000 0.000000 0.000000 0.000000 0.000000 13135.667141 42411.882482 0.000000 0.000000 0.000000 0.000000 0.000000 22584.969121 80879.228356 0.000000 0.000000 0.000000 0.000000 0.000000 31837.176430 173888.138677 0.000000 0.000000 0.000000 0.000000 0.000000 44362.853866 316951.784311 0.000000 0.000000 0.000000 0.000000 0.000000 42407.904473 259915.053479 0.000000 0.000000 0.000000 0.000000 0.000000 59668.687164 389812.950260 0.000000 0.000000 0.000000 0.000000 0.000000 40128.759356 206395.434895 0.000000 0.000000 0.000000 0.000000 0.000000 39923.785423 222769.207117 0.000000 0.000000 0.000000 0.000000 0.000000 42786.523574 222433.038050 0.000000 0.000000 0.000000 0.000000 0.000000 8364.768441 35842.640173 0.000000 0.000000 2676.747175 0.000000 0.000000 0.000000 0.000000 10509.963603 0.000000 21247.472957 51400.084211 29812.047565 0.000000 0.000000 0.000000 0.000000 0.000000 0.000000 0.000000 0.000000 0.000000 0.000000 0.000000 0.000000 0.000000 0.000000 0.000000 0.000000 0.000000 0.000000 0.000000 0.000000 0.000000 0.000000 0.000000 0.000000 0.000000 0.000000 0.000000 0.000000 0.000000 0.000000 0.000000 0.000000 0.000000 0.000000 0.000000 0.000000 0.000000 0.000000 0.000000 0.000000 0.000000 0.000000 0.000000 0.000000 0.000000 0.000000 0.000000 0.000000 0.000000 0.000000 0.000000 0.000000 0.000000 0.000000 0.000000 0.000000 0.000000 0.000000 0.000000 0.000000 0.000000 0.000000 0.000000 0.000000 0.000000 0.000000 0.000000 0.000000 0.000000 0.000000 0.000000 0.000000 0.000000 0.000000 0.000000 0.000000 0.000000 0.000000 0.000000 0.000000 0.000000 0.000000 0.000000 0.000000 0.000000 0.000000 0.000000 0.000000 0.000000 0.000000 0.000000 0.000000 0.000000 0.000000 0.000000 0.000000 0.000000 0.000000 0.000000 0.000000 0.000000 0.000000 0.000000 0.000000 0.000000 0.000000 0.000000 0.000000 0.000000 0.000000 0.000000 0.000000 0.000000 0.000000 0.000000 0.000000 0.000000 0.000000 0.000000 0.000000 0.000000 0.000000 0.000000 0.000000 0.000000 0.000000 0.000000 0.000000 0.000000 0.000000 0.000000 0.000000 0.000000 0.000000 0.000000 0.000000 0.000000 0.000000 0.000000 0.000000 0.000000 0.000000 0.000000 0.000000 0.000000 0.000000 0.000000 0.000000 0.000000 0.000000 0.000000 0.000000 0.000000 0.000000 0.000000
</DataArray>
<DataArray type="Float64" Name="Velocity" NumberOfComponents="3" format="ascii">