<VTKFile type="PolyData">
<PolyData>
<Piece NumberOfPoints="1840" NumberOfVerts="1840" NumberOfLines="0" NumberOfStrips="0" NumberOfPolys="0">
<PointData>
<DataArray type="Float64" Name="Pressure" format="ascii">
 0.000000 0.000000 0.000000 0.000000 0.000000 0.000000 0.000000 0.000000 0.000000 0.000000 0.000000 0.000000 0.000000 0.000000 0.000000 0.000000 0.000000 0.000000 0.000000 0.000000 0.000000 0.000000 0.000000 0.000000 0.000000 0.000000 0.000000 0.000000 0.000000 0.000000 0.000000 0.000000 0.000000 0.000000 0.000000 0.000000 0.000000 0.000000 0.000000 0.000000 0.000000 0.000000 0.000000 0.000000 0.000000 0.000000 0.000000 0.000000 0.000000 0.000000 0.000000 0.000000 0.000000 0.000000 0.000000 0.000000 0.000000 0.000000 0.000000 0.000000 0.000000 0.000000 0.000000 0.000000 0.000000 0.000000 0.000000 0.000000 0.000000 0.000000 0.000000 0.000000 0.000000 0.000000 0.000000 0.000000 0.000000 0.000000 0.000000 0.000000 0.000000 0.000000 0.000000 0.000000 0.000000 0.000000 0.000000 0.000000 0.000000 0.000000 0.000000 0.000000 0.000000 0.000000 0.000000 0.000000 0.000000 0.000000 0.000000 0.000000 0.000000 0.000000 0.000000 0.000000 0.000000 0.000000 0.000000 0.000000 0.000000 0.000000 0.000000 0.000000 0.000000 0.000000 0.000000 0.000000 0.000000 3053.806597 26710.304948 28313.014088 6199.272045 30531.648264 24279.297002 0.000000 0.000000 0.000000 0.000000 0.000000 0.000000 0.000000 0.000000 0.000000 0.000000 0.000000 0.000000 0.000000 0.000000 0.000000 0.000000 0.000000 0.000000 0.000000 0.000000 0.000000 0.000000 0.000000 0.000000 0.000000 0.000000 0.000000 0.000000 0.000000 0.000000 0.000000 0.000000 0.000000 0.000000 0.000000 0.000000 0.000000 0.000000 0.000000 0.000000 0.000000 0.000000 0.000000 0.000000 0.000000 0.000000 0.000000 0.000000 0.000000 0.000000 0.000000 1365.387938 64435.656555 59105.708118 0.000000 33626.413921 14342.511459 0.000000 0.000000 0.000000 0.000000 0.000000 0.000000 0.000000 0.000000 0.000000 0.000000 0.000000 0.000000 0.000000 0.000000 0.000000 0.000000 0.000000 0.000000 0.000000 0.000000 0.000000 0.000000 0.000000 0.000000 0.000000 0.000000 0.000000 0.000000 0.000000 0.000000 0.000000 0.000000 0.000000 0.000000 0.000000 0.000000 0.000000 0.000000 0.000000 0.000000 0.000000 0.000000 0.000000 0.000000 0.000000 0.000000 0.000000 0.000000 0.000000 0.000000 0.000000 0.000000 0.000000 14529.124770 0.000000 65810.951824 0.000000 0.000000 0.000000 14377.642188 95961.308659 0.000000 0.000000 82722.113418 0.000000 0.000000 53447.982071 0.000000 39915.623204 30422.690008 27896.628509 0.000000 0.000000 0.000000 0.000000 21951.278440 0.000000 0.000000 0.000000 0.000000 0.000000 0.000000 0.000000 121720.697623 0.000000 0.000000 15455.401702 0.000000 43510.806003 42873.564189 0.000000 0.000000 0.000000 0.000000 0.000000 0.000000 3215.686320 24636.091919 0.000000 91141.093532 46604.916829 0.000000 0.000000 0.000000 0.000000 0.000000 0.000000 0.000000 8579.721097 0.000000 0.000000 18988.017904 0.000000 0.000000 0.000000 7829.330618 0.000000 0.000000 76548.565929 0.000000 17494.929208 0.000000 0.000000 0.000000 0.000000 0.000000 0.000000 0.000000 126865.812322 0.000000 82846.133371 0.000000 0.000000 40702.903451 0.000000 0.000000 50613.835635 0.000000 0.000000 0.000000 0.000000 0.000000 13561.341665 78578.151098 0.000000 0.000000 0.000000 0.000000 52807.421500 0.000000 0.000000 0.000000 15814.106072 0.000000 84808.419987 0.000000 156393.846818 0.000000 16506.749346 0.000000 99116.144056 0.000000 15244.095928 0.000000 0.000000 0.000000 0.000000 42589.426346 0.000000 1678.927324 0.000000 0.000000 0.000000 0.000000 4021.590748 83059.293556 88623.203993 0.000000 46051.766824 46247.360206 29788.835882 0.000000 0.000000 0.000000 0.000000 0.000000 0.000000 0.000000 8410.615347 13049.714616 0.000000 0.000000 0.000000 0.000000 60275.051206 0.000000 0.000000 140556.061647 213134.452234 14282.793131 22243.974675 80875.942292 0.000000 0.000000 21254.651093 3909.476134 230.756349 0.000000 31774.118520 0.000000 1278.305737 13788.583540 51307.210802 0.000000 91203.536378 0.000000 0.000000 0.000000 92156.280884 0.000000 0.000000 0.000000 0.000000 112902.232981 16693.166937 0.000000 0.000000 30650.612384 0.000000 0.000000 0.000000 0.000000 0.000000 0.000000 0.000000 0.000000 86951.124601 0.000000 0.000000 158475.736360 0.000000 0.000000 0.000000 0.000000 77786.107064 0.000000 103840.754035 0.000000 121407.087208 0.000000 121307.271479 18294.375793 25435.275333 41502.993728 0.000000 29474.188329 36662.698651 49546.626875 0.000000 41866.411679 0.000000 0.000000 98464.521641 0.000000 0.000000 0.000000 0.000000 0.000000 0.000000 0.000000 3113.418905 0.000000 0.000000 122289.709341 170658.052060 0.000000 0.000000 0.000000 0.000000 0.000000 9322.524186 0.000000 6031.621224 0.000000 4858.714778 459163.322958 0.000000 0.000000 15756.323763 0.000000 1209.371018 279162.768795 0.000000 129299.099508 0.000000 0.000000 0.000000 0.000000 200482.034615 0.000000 0.000000 43429.243941 0.000000 12668.087454 29445.268953 0.000000 0.000000 0.000000 0.000000 0.000000 315042.682863 10290.711552 0.000000 0.000000 0.000000 17938.150796 0.000000 30484.649019 0.000000 51914.866025 0.000000 0.000000 0.000000 0.000000 0.000000 0.000000 47755.177003 95548.109550 0.000000 75340.650567 82109.892162 0.000000 0.000000 124802.223318 0.000000 269167.844843 0.000000 34187.789030 0.000000 49561.461456 0.000000 0.000000 19384.716263 0.000000 0.000000 322072.529502 0.000000 96498.336991 0.000000 118905.178290 0.000000 7237.188906 0.000000 198942.897258 0.000000 0.000000 0.000000 0.000000 0.000000 0.000000 0.000000 0.000000 0.000000 0.000000 0.000000 0.000000 0.000000 0.000000 0.000000 0.000000 0.000000 0.000000 58727.081531 86283.091396 130337.010318 141337.446964 66431.913832 0.000000 0.000000 13174.806023 0.000000 127942.050843 39999.237228 0.000000 192949.728581 0.000000 0.000000 81895.207923 0.000000 0.000000 0.000000 208648.873642 0.000000 52206.628530 161570.044378 0.000000 128404.341302 311488.915473 0.000000 0.000000 0.000000 0.000000 116918.387161 318537.226827 743854.738713 113602.904150 0.000000 0.000000 45241.484484 0.000000 0.000000 79713.843909 0.000000 0.000000 0.000000 0.000000 0.000000 0.000000 15070.103294 50815.910830 0.000000 43188.635130 0.000000 0.000000 0.000000 347659.144435 0.000000 0.000000 0.000000 0.000000 0.000000 0.000000 127677.724667 189701.278357 0.000000 0.000000 239035.522616 133632.244692 0.000000 0.000000 803151.466654 0.000000 0.000000 0.000000 0.000000 738213.426747 47825.987936 0.000000 0.000000 0.000000 0.000000 18698.231103 0.000000 0.000000 5344.829590 44849.234248 0.000000 0.000000 0.000000 0.000000 0.000000 0.000000 0.000000 0.000000 1356.411863 36241.480067 566.603953 499127.884156 0.000000 0.000000 0.000000 0.000000 300405.533162 0.000000 0.000000 0.000000 0.000000 9849.368223 0.000000 0.000000 0.000000 382165.808242 0.000000 95278.605387 0.000000 0.000000 314761.051513 0.000000 438738.156437 183891.112220 271727.118188 43758.420608 976035.192195 25334.896169 0.000000 28483.516962 0.000000 732774.097399 0.000000 418335.259594 0.000000 0.000000 0.000000 0.000000 0.000000 0.000000 0.000000 0.000000 0.000000 0.000000 0.000000 16865.079216 0.000000 0.000000 82731.299219 51486.407496 0.000000 132169.536738 0.000000 0.000000 0.000000 313459.929092 654.733191 0.000000 0.000000 0.000000 0.000000 0.000000 0.000000 32067.671055 123699.311034 0.000000 0.000000 0.000000 368169.081181 0.000000 0.000000 65131.258123 0.000000 79010.503442 252682.687103 26695.873389 146276.740914 1763.598230 0.000000 344393.370193 152979.273311 0.000000 0.000000 0.000000 20595.592394 0.000000 0.000000 0.000000 0.000000 0.000000 1586.887676 26887.360255 0.000000 0.000000 0.000000 0.000000 126609.648610 0.000000 0.000000 45272.083160 0.000000 311097.697436 0.000000 0.000000 0.000000 0.000000 0.000000 0.000000 0.000000 0.000000 45312.668251 0.000000 280694.531141 0.000000 143062.437487 0.000000 95845.423257 325518.867319 0.000000 0.000000 0.000000 77624.444365 0.000000 0.000000 105876.507773 0.000000 0.000000 96941.238831 0.000000 60716.211776 301736.960945 0.000000 0.000000 0.000000 0.000000 0.000000 2036.692746 183.178491 115392.180088 0.000000 0.000000 0.000000 0.000000 19925.950088 0.000000 104672.945387 28106.494396 102691.293452 404323.699073 0.000000 0.000000 0.000000 0.000000 0.000000 0.000000 663590.832338 0.000000 0.000000 0.000000 158145.149788 0.000000 38612.687141 0.000000 0.000000 0.000000 0.000000 106737.204390 0.000000 0.000000 0.000000 115044.777427 0.000000 219458.183741 0.000000 287910.142941 0.000000 0.000000 0.000000 0.000000 0.000000 0.000000 0.000000 9848.022314 5122.375382 64573.656231 237129.369357 0.000000 0.000000 206880.681946 129761.259133 126969.609651 0.000000 42221.457524 0.000000 309935.845272 446912.697021 57761.847667 0.000000 0.000000 78223.657098 0.000000 0.000000 283080.741262 710044.638556 0.000000 304934.588241 36363.814475 496659.096546 0.000000 0.000000 0.000000 0.000000 80960.495977 0.000000 0.000000 0.000000 319335.923166 0.000000 0.000000 28079.821443 70925.747169 0.000000 0.000000 0.000000 0.000000 0.000000 0.000000 0.000000 27602.466277 85336.072757 268238.619491 0.000000 0.000000 138017.429872 0.000000 0.000000 19708.056513 46912.706815 15361.721846 0.000000 90966.872523 0.000000 0.000000 0.000000 0.000000 48519.829784 0.000000 155868.663122 0.000000 608222.725397 12105.923086 0.000000 0.000000 0.000000 0.000000 0.000000 615494.319804 74150.005923 29453.019754 99919.583306 822998.634530 0.000000 0.000000 0.000000 0.000000 0.000000 250939.423513 0.000000 0.000000 0.000000 0.000000 0.000000 0.000000 0.000000 12315.746693 39334.340074 0.000000 71807.305959 0.000000 0.000000 0.000000 0.000000 17288.264320 0.000000 0.000000 0.000000 0.000000 0.000000 0.000000 0.000000 0.000000 0.000000 0.000000 0.000000 28873.597899 17516.453201 0.000000 0.000000 299756.363231 109553.489917 5746.703668 59136.121829 0.000000 0.000000 0.000000 0.000000 322515.551389 0.000000 0.000000 121966.020848 0.000000 0.000000 18552.440349 0.000000 54808.263844 0.000000 0.000000 0.000000 0.000000 0.000000 1604.438866 3344.834779 0.000000 42611.235240 70029.922050 0.000000 0.000000 0.000000 0.000000 0.000000 0.000000 0.000000 0.000000 0.000000 0.000000 0.000000 0.000000 0.000000 4113.934514 0.000000 492755.325121 0.000000 122468.923064 0.000000 0.000000 0.000000 92528.597344 0.000000 609611.430892 0.000000 340742.022441 21420.402607 0.000000 98016.581814 119590.518485 0.000000 10257.386107 52145.169492 0.000000 129364.455058 932007.016536 0.000000 0.000000 0.000000 0.000000 0.000000 1754.427177 5323.494564 0.000000 47790.969753 0.000000 325008.162717 0.000000 0.000000 0.000000 0.000000 0.000000 0.000000 0.000000 0.000000 30790.495512 26819.406229 0.000000 0.000000 42040.491868 0.000000 0.000000 0.000000 0.000000 0.000000 0.000000 133981.741994 128655.077651 0.000000 0.000000 427145.549116 0.000000 0.000000 68665.674092 0.000000 428069.917053 0.000000 85826.168487 105196.535195 107509.912054 0.000000 0.000000 0.000000 0.000000 0.000000 0.000000 0.000000 0.000000 0.000000 0.000000 0.000000 0.000000 237399.303303 0.000000 0.000000 0.000000 0.000000 0.000000 152091.777534 0.000000 0.000000 0.000000 47732.418740 0.000000 59146.016317 0.000000 404465.282015 24890.971153 0.000000 0.000000 22756.636976 0.000000 346451.879079 0.000000 5575.224056 0.000000 67538.518515 0.000000 0.000000 0.000000 0.000000 0.000000 0.000000 0.000000 0.000000 0.000000 611660.598214 0.000000 0.000000 0.000000 0.000000 0.000000 0.000000 4143.746026 16223.007532 0.000000 0.000000 0.000000 0.000000 0.000000 18959.185596 62633.668208 0.000000 0.000000 0.000000 0.000000 0.000000 56604.099816 135132.594866 0.000000 0.000000 0.000000 0.000000 0.000000 33336.077476 57182.736807 0.000000 0.000000 0.000000 0.000000 0.000000 5607.860205 22249.922404 0.000000 0.000000 0.000000 0.000000 0.000000 0.000000 24663.311528 0.000000 0.000000 0.000000 0.000000 0.000000 5898.216058 21950.286990 0.000000 0.000000 0.000000 0.000000 0.000000 30482.745498 82052.827238 0.000000 0.000000 0.000000 0.000000 0.000000 18167.626225 10030.618274 0.000000 0.000000 0.000000 0.000000 0.000000 32387.221981 32727.395140 0.000000 0.000000 0.000000 0.000000 0.000000 46929.720277 182734.792746 0.000000 0.000000 0.000000 0.000000 0.000000 13836.955066 116742.491701 0.000000 0.000000 0.000000 0.000000 0.000000 2372.585367 34148.377524 0.000000 0.000000 0.000000 0.000000 0.000000 130.664044 0.000000 0.000000 0.000000 0.000000 0.000000 0.000000 0.000000 0.000000 0.000000 0.000000 0.000000 0.000000 0.000000 29152.851698 7523.945444 0.000000 0.000000 0.000000 0.000000 0.000000 54921.264595 165486.572282 0.000000 0.000000 0.000000 0.000000 0.000000 16683.029041 114920.673478 0.000000 0.000000 0.000000 0.000000 0.000000 10666.595126 34188.446070 0.000000 0.000000 0.000000 0.000000 0.000000 44102.763943 149564.945684 0.000000 0.000000 0.000000 0.000000 0.000000 35790.041807 94674.413458 0.000000 0.000000 0.000000 0.000000 0.000000 0.000000 0.000000 0.000000 0.000000 0.000000 0.000000 0.000000 0.000000 0.000000 0.000000 0.000000 0.000000 0.000000 0.000000 0.000000 0.000000 0.000000 0.000000 0.000000 0.000000 0.000000 9730.768036 0.000000 0.000000 0.000000 0.000000 0.000000 0.000000 25283.611384 156836.246854 0.000000 0.000000 0.000000 0.000000 0.000000 8783.721887 76233.777533 0.000000 0.000000 0.000000 0.000000 0.000000 8100.854104 86074.184705 0.000000 0.000000 0.000000 0.000000 0.000000 5061.629196 84335.164568 0.000000 0.000000 0.000000 0.000000 0.000000 0.000000 0.000000 0.000000 0.000000 0.000000 0.000000 0.000000 4998.778650 7058.087295 0.000000 0.000000 0.000000 0.000000 0.000000 8331.140055 12510.363577 0.000000 0.000000 0.000000 0.000000 0.000000 0.000000 0.000000 0.000000 0.000000 0.000000 0.000000 0.000000 13321.020067 0.000000 0.000000 0.000000 0.000000 0.000000 0.000000 43905.585466 74831.546031 0.000000 0.000000 0.000000 0.000000 0.000000 12240.006169 0.000000 0.000000 0.000000 0.000000 0.000000 0.000000 518.725903 0.000000 0.000000 0.000000 0.000000 0.000000 0.000000 27397.194693 193733.759150 0.000000 0.000000 0.000000 0.000000 0.000000 37113.284108 161564.709475 0.000000 0.000000 0.000000 0.000000 0.000000 12377.736316 57246.133241 0.000000 0.000000 0.000000 0.000000 0.000000 36743.472910 84697.620107 0.000000 0.000000 0.000000 0.000000 0.000000 102605.706105 461157.877502 0.000000 0.000000 0.000000 0.000000 0.000000 90722.434634 452281.065628 0.000000 0.000000 0.000000 0.000000 0.000000 40781.020874 229739.331176 0.000000 0.000000 0.000000 0.000000 0.000000 19750.375920 120330.053691 0.000000 0.000000 0.000000 0.000000 0.000000 15860.406337 0.000000 0.000000 0.000000 0.000000 0.000000 0.000000 42124.553421 55184.654056 0.000000 0.000000 0.000000 0.000000 0.000000 22691.708496 97516.906147 0.000000 0.000000 0.000000 0.000000 0.000000 12341.663932 70985.440766 0.000000 0.000000 0.000000 0.000000 0.000000 75644.000303 267661.852348 0.000000 0.000000 0.000000 0.000000 0.000000 58691.553203 206842.714752 0.000000 0.000000 0.000000 0.000000 0.000000 31859.258996 106498.774004 0.000000 0.000000 0.000000 0.000000 0.000000 32848.679795 56350.615835 0.000000 0.000000 0.000000 0.000000 0.000000 5275.022016 0.000000 0.000000 0.000000 0.000000 0.000000 0.000000 11987.482525 91022.311299 0.000000 0.000000 0.000000 0.000000 0.000000 41362.185679 315421.723832 0.000000 0.000000 0.000000 0.000000 0.000000 72849.640507 559426.984651 0.000000 0.000000 0.000000 0.000000 0.000000 71432.233781 353855.264956 0.000000 0.000000 0.000000 0.000000 0.000000 18286.426728 17409.125093 0.000000 0.000000 0.000000 0.000000 0.000000 1104.854920 0.000000 0.000000 0.000000 0.000000 0.000000 0.000000 1006.991900 0.000000 0.000000 0.000000 0.000000 0.000000 0.000000 50318.132315 262322.249572 0.000000 0.000000 0.000000 0.000000 0.000000 91701.804009 607016.844409 0.000000 0.000000 0.000000 0.000000 0.000000 15824.124805 13544.776446 0.000000 0.000000 0.000000 0.000000 0.000000 5094.192475 0.000000 0.000000 0.000000 0.000000 0.000000 0.000000 50580.925236 175847.112877 0.000000 0.000000 0.000000 0.000000 0.000000 35424.478391 126604.133474 0.000000 0.000000 0.000000 0.000000 0.000000 3425.460322 35660.890690 0.000000 0.000000 0.000000 0.000000 0.000000 24706.261449 204812.923168 0.000000 0.000000 0.000000 0.000000 0.000000 36063.393094 117368.857298 0.000000 0.000000 0.000000 0.000000 0.000000 12058.173720 21100.017661 0.000000 0.000000 0.000000 0.000000 0.000000 41065.950715 169568.288417 0.000000 0.000000 0.000000 0.000000 0.000000 30700.422400 38918.870392 0.000000 0.000000 0.000000 0.000000 0.000000 5935.437038 0.000000 0.000000 0.000000 0.000000 0.000000 0.000000 45705.188811 22103.195198 0.000000 0.000000 0.000000 0.000000 0.000000 51759.892507 179345.798511 0.000000 0.000000 0.000000 0.000000 0.000000 12893.104578 103155.634838 0.000000 0.000000 0.000000 0.000000 0.000000 18646.495060 59924.792869 0.000000 0.000000 0.000000 0.000000 0.000000 47717.404927 100921.047658 0.000000 0.000000 0.000000 0.000000 0.000000 48696.807465 174792.295617 0.000000 0.000000 0.000000 0.000000 0.000000 29975.602414 141806.141844 0.000000 0.000000 0.000000 0.000000 0.000000 4891.695965 25070.063314 0.000000 0.000000 8675.491729 44249.068958 23262.371118 0.000000 20100.693135 0.000000 0.000000 0.000000 0.000000 0.000000 0.000000 0.000000 0.000000 0.000000 0.000000 0.000000 0.000000 0.000000 0.000000 0.000000 0.000000 0.000000 0.000000 0.000000 0.000000 0.000000 0.000000 0.000000 0.000000 0.000000 0.000000 0.000000 0.000000 0.000000 0.000000 0.000000 0.000000 0.000000 0.000000 0.000000 0.000000 0.000000 0.000000 0.000000 0.000000 0.000000 0.000000 0.000000 0.000000 0.000000 0.000000 0.000000 0.000000 0.000000 0.000000 0.000000 0.000000 0.000000 0.000000 0.000000 0.000000 0.000000 0.000000 0.000000 0.000000 0.000000 0.000000 0.000000 0.000000 0.000000 0.000000 0.000000 0.000000 0.000000 0.000000 0.000000 0.000000 0.000000 0.000000 0.000000 0.000000 0.000000 0.000000 0.000000 0.000000 0.000000 0.000000 0.000000 0.000000 0.000000 0.000000 0.000000 0.000000 0.000000 0.000000 0.000000 0.000000 0.000000 0.000000 0.000000 0.000000 0.000000 0.000000 0.000000 0.000000 0.000000 0.000000 0.000000 0.000000 0.000000 0.000000 0.000000 0.000000 0.000000 0.000000 0.000000 0.000000 0.000000 0.000000 0.000000 0.000000 0.000000 0.000000 0.000000 0.000000 0.000000 0.000000 0.000000 0.000000 0.000000 0.000000 0.000000 0.000000 0.000000 0.000000 0.000000 0.000000 0.000000 0.000000 0.000000 0.000000 0.000000 0.000000 0.000000 0.000000 0.000000 0.000000 0.000000 0.000000 0.000000 0.000000 0.000000 0.000000 0.000000 0.000000 0.000000 0.000000 0.000000 0.000000 0.000000 0.000000 0.000000 0.000000 0.000000 0.000000
</DataArray>
<DataArray type="Float64" Name="Velocity" NumberOfComponents="3" format="ascii">