<VTKFile type="PolyData">
<PolyData>
<Piece NumberOfPoints="1840" NumberOfVerts="1840" NumberOfLines="0" NumberOfStrips="0" NumberOfPolys="0">
<PointData>
<DataArray type="Float64" Name="Pressure" format="ascii">
 0.000000 0.000000 0.000000 0.000000 0.000000 0.000000 0.000000 0.000000 0.000000 0.000000 0.000000 0.000000 0.000000 0.000000 0.000000 0.000000 0.000000 0.000000 0.000000 0.000000 0.000000 0.000000 0.000000 0.000000 0.000000 0.000000 0.000000 0.000000 0.000000 0.000000 0.000000 0.000000 0.000000 0.000000 0.000000 0.000000 0.000000 0.000000 0.000000 0.000000 0.000000 0.000000 0.000000 0.000000 0.000000 0.000000 0.000000 0.000000 0.000000 0.000000 0.000000 0.000000 0.000000 0.000000 0.000000 0.000000 0.000000 0.000000 0.000000 0.000000 0.000000 0.000000 0.000000 0.000000 0.000000 0.000000 0.000000 0.000000 0.000000 0.000000 0.000000 0.000000 0.000000 0.000000 0.000000 0.000000 0.000000 0.000000 0.000000 0.000000 0.000000 0.000000 0.000000 0.000000 0.000000 0.000000 0.000000 0.000000 0.000000 0.000000 0.000000 0.000000 0.000000 0.000000 0.000000 0.000000 0.000000 0.000000 0.000000 0.000000 0.000000 0.000000 0.000000 0.000000 0.000000 0.000000 0.000000 0.000000 0.000000 0.000000 0.000000 0.000000 0.000000 0.000000 0.000000 0.000000 23860.155277 97364.091027 129545.180390 132850.955303 118861.756127 115767.672551 103937.999931 92305.466058 88027.194204 99876.609791 96416.045629 52788.047186 53870.409496 44633.161769 23239.514599 16662.767507 12035.464232 8898.114198 7455.385618 9323.712074 13897.041939 20368.992076 20642.530724 10964.533492 2844.191414 252.303813 0.000000 0.000000 0.000000 0.000000 0.000000 0.000000 0.000000 0.000000 0.000000 0.000000 0.000000 0.000000 0.000000 0.000000 0.000000 0.000000 0.000000 0.000000 0.000000 0.000000 0.000000 0.000000 0.000000 0.000000 0.000000 0.000000 0.000000 0.000000 0.000000 0.000000 0.000000 87745.242856 452981.079764 521960.684903 488871.509346 454130.950208 477419.398309 437400.340959 389687.349969 363247.164571 436776.039223 413232.823598 232441.469397 279067.789770 322031.884842 255359.750971 180258.476564 154334.025023 154373.133148 130595.821730 110294.727881 129706.479390 226689.420988 318184.278998 187740.401850 51786.567642 9202.975959 1072.912077 0.000000 0.000000 0.000000 0.000000 0.000000 0.000000 0.000000 0.000000 0.000000 0.000000 0.000000 0.000000 0.000000 0.000000 0.000000 0.000000 0.000000 0.000000 0.000000 0.000000 0.000000 0.000000 0.000000 0.000000 0.000000 0.000000 0.000000 0.000000 0.000000 0.000000 101867.966726 473404.027841 452981.079764 404546.357130 509860.863725 343047.833487 472723.312788 341476.939227 467399.319766 375564.338867 443463.433964 380605.218583 345285.151920 340516.388016 429156.947775 306261.173151 283999.379252 350312.642522 239417.395336 286618.268144 332375.518674 409021.690374 399029.470437 319546.988986 184797.737171 223853.818588 307660.439105 397601.254163 353988.425553 198566.566977 104044.793654 99906.683412 214964.570023 397481.043782 495446.190207 429429.785980 238762.439695 77396.444641 17693.264999 3389.359046 0.000000 0.000000 0.000000 0.000000 0.000000 0.000000 108720.599357 464845.541554 473682.286126 391362.552406 395296.389866 452706.449771 441249.438185 344275.665323 354600.853877 358364.694055 364415.227579 389652.573575 312935.941057 413571.575644 374903.901670 326982.583061 323849.000012 341939.392288 313632.201565 292490.893498 262404.383669 307726.562730 358848.888774 351297.802526 257943.770722 131181.619090 79337.183786 150910.834835 262310.583838 296358.086876 224065.465859 107862.290773 52902.906956 86542.153666 203955.523078 288281.210723 215423.029764 89032.297475 26555.840960 7139.688025 0.000000 0.000000 0.000000 0.000000 0.000000 0.000000 105720.515139 428778.883674 425881.017619 402708.491674 449068.010314 432137.149512 340330.315338 402236.582201 387489.586032 396592.795063 311171.449283 309912.306230 332039.552566 360899.224851 383522.596572 332116.816530 305629.980206 332987.189113 368329.196090 331562.430317 210747.574973 151120.630626 210340.815515 339430.017864 376301.190994 291187.181453 187936.271961 150374.527551 198503.280827 272311.144106 263349.576161 177256.226811 129815.591252 165528.544256 265544.255809 312265.052852 222211.929663 93838.437343 29055.731908 7234.286989 0.000000 0.000000 0.000000 0.000000 0.000000 0.000000 100614.522746 477216.629156 478641.719314 484500.933507 499705.441641 398441.543132 338999.134824 361531.234338 433169.143129 424819.241653 366165.835664 254691.640657 258868.511321 367480.438157 389240.201097 354105.329172 253180.582952 224185.315226 304978.394504 383350.926997 368132.111363 288513.163629 229376.470304 223683.492734 239615.847816 236372.372352 208618.952177 204877.875526 240545.135895 258236.691206 199099.568994 114045.062533 80513.609755 120492.724286 222976.255130 282889.402351 210960.046280 93652.440195 30810.472335 7676.336539 0.000000 0.000000 0.000000 0.000000 0.000000 0.000000 93499.171724 452060.677963 385821.465413 410738.815900 385804.134945 461301.627531 360348.846738 337535.845012 366740.874882 387896.577445 380645.554693 344081.027933 281389.423919 306207.951811 360841.251979 386038.055819 362494.032758 331968.031497 294195.105797 248555.653619 222340.580729 230029.464320 267163.591990 321627.614996 310110.965442 220776.108136 153478.280930 158151.919120 226855.759238 283434.220418 241977.835914 147697.095093 103261.723553 139245.903695 233206.210437 278603.989681 201391.790340 89072.815843 29842.078224 7269.989655 0.000000 0.000000 0.000000 0.000000 0.000000 0.000000 90753.258731 357664.658319 356112.541051 423368.602730 407085.751998 437540.616286 375799.138834 333200.321155 334127.626572 348240.517690 343508.556253 322897.207753 359796.519242 401009.476193 380667.335747 280843.624406 234109.278118 296500.459743 370760.409586 368191.890469 282612.997580 199753.540226 192956.079524 256157.484124 290377.813992 248745.235467 195085.574936 181235.956010 219027.822849 249730.411592 204539.816050 125530.396901 95498.079318 137786.540882 228641.476573 265388.366828 187197.615807 82263.285857 27945.731594 6657.610645 0.000000 0.000000 0.000000 0.000000 0.000000 0.000000 89390.959474 354500.837231 390778.217290 372226.107388 436619.614278 347199.602083 332816.242894 358601.712445 401123.009529 398919.914284 348226.951739 282013.645617 292507.082151 370156.928540 418686.062747 358285.701094 266427.315268 240645.123627 261113.477471 280527.156377 264996.153596 230680.282486 237221.120882 272410.160062 263333.889983 209325.264341 171520.747929 178769.885677 231145.728692 260909.781748 207485.982002 127987.552852 102727.429464 148319.183481 232045.255428 252930.716110 169932.217582 73291.743674 25283.866168 5843.213431 0.000000 0.000000 0.000000 0.000000 0.000000 0.000000 85031.364384 375015.150207 428896.274406 388895.678146 373658.398167 380452.930178 338084.164393 311634.732900 314586.036372 341056.597922 353776.047015 329376.484997 302781.626115 295219.203567 282734.651723 264193.746724 260003.272450 293053.573729 325596.950964 300371.271002 229625.309879 188489.234504 217859.738450 269758.169462 269812.192139 217379.390053 177049.133757 181606.219571 223676.355313 239373.308144 185021.990151 118141.425675 104822.050730 156348.292858 232558.671062 237092.084307 150409.059244 63147.408833 21908.132088 4769.594048 0.000000 0.000000 0.000000 0.000000 0.000000 0.000000 85489.419071 406787.337918 383914.867366 284209.439327 353913.484418 330195.128974 362930.857971 387817.861286 348835.948809 297124.224120 263979.559234 274263.941694 311717.755266 353706.841339 347820.716874 293204.022325 235286.534243 233042.354605 274357.472758 277276.714497 228606.999149 203895.544004 226733.753725 254011.178054 239894.514706 195798.231560 171329.358397 188023.683255 227697.608320 230688.516199 172157.508137 113999.459944 111110.989361 166764.455001 230708.275290 216764.640047 129088.851145 53025.639209 18675.592148 3747.740882 0.000000 0.000000 0.000000 0.000000 0.000000 0.000000 85189.484455 446613.739317 357955.421115 338819.953104 372266.004615 335243.785811 331813.470354 332269.405157 296741.813541 285034.062708 301017.534623 333805.478429 331793.585276 292483.783830 253380.102896 235126.736430 237179.308748 263464.763087 286566.560407 266347.717883 211355.526621 193626.895101 220071.263425 249837.005083 235720.838604 188916.564744 168127.335844 189264.505037 220407.659911 210602.429332 153676.708195 108914.226349 118451.093195 177036.866330 225551.560156 193273.780106 107313.574620 43031.182219 15300.344633 2622.672041 0.000000 0.000000 0.000000 0.000000 0.000000 0.000000 64975.824769 335477.077177 306391.573353 286284.907583 298596.608890 286453.411290 294583.517205 311864.650279 304572.745781 280298.938244 278081.192756 297331.331018 302053.040091 277596.205619 238962.383008 233218.560835 256448.785659 266542.973693 255769.526542 230520.842423 202657.734741 194678.687451 210581.375660 229310.935258 213777.703585 172527.119691 164242.550250 193066.952557 215041.869180 192352.551759 138072.219400 106925.328908 127584.987399 184320.731309 213356.862503 166006.714930 86399.353208 34175.931773 12361.578051 1612.714732 0.000000 0.000000 0.000000 0.000000 0.000000 0.000000 74541.694776 364546.804005 285675.239400 330930.785054 334826.488456 277550.602739 280806.916424 264092.336727 271535.535533 294932.116845 295347.821441 278152.359595 258336.829561 239526.977848 222763.930228 225094.551244 247976.276119 257002.309179 230713.132833 199132.747808 188303.789658 197542.334300 213502.800371 219274.138634 196485.287906 160670.590224 162773.980288 192074.462210 200675.980947 168663.692073 122806.867073 107204.036280 137595.196600 187442.342429 194714.483557 136743.564434 66938.463062 26217.879016 9616.654540 615.837334 0.000000 0.000000 0.000000 0.000000 0.000000 0.000000 61980.064914 337519.595568 234363.102801 278409.924213 278844.106479 225649.043757 219001.424693 250693.871889 253143.056688 252306.483303 251276.063162 238288.852056 215771.654452 210259.766965 216640.632905 225738.067442 226483.560235 218588.372691 201289.478252 185341.000343 179269.422546 186761.813754 194512.290312 186425.805071 163604.069325 144826.039645 159972.836757 186825.059805 182305.818926 145492.934120 110747.006767 109819.190853 145683.739363 182597.504174 169141.660379 107724.488401 50300.624842 19710.277937 7371.004255 0.000000 0.000000 0.000000 0.000000 0.000000 0.000000 0.000000 72573.400645 367618.338620 220427.759391 210906.559568 215765.128522 215026.073154 192389.773351 240530.277570 246742.681853 193447.261904 196100.173440 198414.599811 186791.042964 185778.872542 193401.783625 202060.390119 201320.815725 189962.809770 171832.296872 165771.587914 178184.158025 189747.651780 187088.988958 168531.995236 148813.475692 143680.333903 161921.367435 176583.023128 158390.512862 122515.839448 101704.133012 113584.784958 149129.272286 168404.304692 138266.226987 80328.426885 36182.318052 14229.009831 5401.440298 0.000000 0.000000 0.000000 0.000000 0.000000 0.000000 0.000000 56908.530187 280189.661352 181406.616846 119661.340786 125304.094280 190780.224978 137193.126158 158689.375883 163517.679972 159472.499104 164869.848313 165760.740031 160745.152228 167308.314139 163418.073192 157127.057842 152290.090524 152163.903599 149604.348498 145696.756990 152068.272040 153512.310667 137496.195859 117237.432320 114455.608715 125289.685667 142801.953735 147271.574505 125170.689523 99353.819849 94823.034491 116224.458600 144912.096286 145431.467771 106225.738895 57238.781925 25312.792628 10078.252768 3889.125326 0.000000 0.000000 0.000000 0.000000 0.000000 0.000000 0.000000 67692.090309 307149.862614 102959.837091 73776.172578 58486.354178 112052.370681 82804.344709 97317.332157 113833.160550 142926.199218 147408.382086 119465.100846 117995.765105 126908.316686 133974.029982 142440.449724 136959.334705 124777.848376 132072.287916 137964.838630 140590.405917 143022.532077 129405.559076 114489.024820 124179.983825 140137.798129 145541.186202 133827.833306 107870.697666 90088.772250 94010.208978 114168.356203 128338.449266 113112.100627 74046.217776 37605.467441 16413.340074 6504.509804 2479.949856 0.000000 0.000000 0.000000 0.000000 0.000000 0.000000 0.000000 57507.907832 275841.202561 76424.073369 24919.145518 19201.449745 87881.322754 90689.801624 50062.702479 82005.549272 76800.362117 73483.682487 66778.901609 75211.271155 77330.633996 83267.971845 85412.660082 91551.923439 98648.799261 91679.989772 81607.217793 70681.622432 57757.891425 60398.837985 62278.233185 72471.208729 84575.839836 83272.618171 72445.334598 60391.485132 59240.370907 72832.400645 91208.642882 96208.335447 77704.132769 47797.974196 23913.233178 10544.093664 4169.835540 1551.144121 0.000000 0.000000 0.000000 0.000000 0.000000 0.000000 0.000000 63920.629428 281291.368503 22612.946335 0.000000 24868.942015 20672.110026 23562.016474 33192.157799 43077.910497 36138.840316 20071.193375 56656.800882 37725.986426 67164.652485 84494.923521 92388.136845 89905.110957 74418.567968 70468.277183 65712.387420 67854.143747 69043.793874 81174.482513 100419.414577 120722.495958 132536.521100 123064.951853 103871.319827 89098.321150 83891.259358 85582.998817 84910.238527 73175.668728 50953.558676 28182.861994 12358.433726 3608.283641 0.000000 0.000000 0.000000 0.000000 0.000000 0.000000 0.000000 0.000000 0.000000 56025.151950 273701.976289 12748.976481 0.000000 0.000000 0.000000 4142.786083 1740.299134 0.000000 0.000000 0.000000 14142.844444 0.000000 0.000000 0.000000 0.000000 0.000000 0.000000 0.000000 0.000000 0.000000 0.000000 0.000000 0.000000 1384.995661 15304.576489 18555.679403 9484.809992 0.000000 0.000000 0.000000 0.000000 0.000000 0.000000 0.000000 0.000000 0.000000 0.000000 0.000000 0.000000 0.000000 0.000000 0.000000 0.000000 0.000000 0.000000 50996.012258 235916.992330 0.000000 0.000000 0.000000 0.000000 0.000000 61918.708185 224553.392206 0.000000 0.000000 0.000000 0.000000 0.000000 41666.033644 188373.314513 0.000000 0.000000 0.000000 0.000000 0.000000 67091.861663 219385.191367 0.000000 0.000000 0.000000 0.000000 0.000000 28253.070607 120968.118170 0.000000 0.000000 0.000000 0.000000 0.000000 38084.968803 133367.177149 0.000000 0.000000 0.000000 0.000000 0.000000 61935.355648 164922.386167 0.000000 0.000000 0.000000 0.000000 0.000000 26136.587247 61999.439334 0.000000 0.000000 0.000000 0.000000 0.000000 57095.071112 99043.657633 0.000000 0.000000 0.000000 0.000000 0.000000 41953.097397 57086.364029 0.000000 0.000000 0.000000 0.000000 0.000000 34625.123685 66125.505752 0.000000 0.000000 0.000000 0.000000 0.000000 32362.055526 62515.446988 0.000000 0.000000 0.000000 0.000000 0.000000 10150.130777 16744.190613 0.000000 0.000000 0.000000 0.000000 0.000000 15790.804774 40546.660117 0.000000 0.000000 0.000000 0.000000 0.000000 4951.974197 32996.912135 0.000000 0.000000 0.000000 0.000000 0.000000 17895.581835 85192.479932 0.000000 0.000000 0.000000 0.000000 0.000000 28107.815906 21784.229985 0.000000 0.000000 0.000000 0.000000 0.000000 2794.479999 0.000000 0.000000 0.000000 0.000000 0.000000 0.000000 0.000000 0.000000 0.000000 0.000000 0.000000 0.000000 0.000000 0.000000 0.000000 0.000000 0.000000 0.000000 0.000000 0.000000 0.000000 0.000000 0.000000 0.000000 0.000000 0.000000 0.000000 0.000000 0.000000 0.000000 0.000000 0.000000 0.000000 0.000000 0.000000 0.000000 0.000000 0.000000 0.000000 0.000000 0.000000 0.000000 0.000000 0.000000 0.000000 0.000000 0.000000 0.000000 0.000000 0.000000 0.000000 0.000000 0.000000 0.000000 0.000000 0.000000 0.000000 0.000000 0.000000 0.000000 0.000000 0.000000 0.000000 0.000000 0.000000 0.000000 0.000000 0.000000 0.000000 0.000000 0.000000 0.000000 0.000000 0.000000 0.000000 0.000000 0.000000 0.000000 0.000000 0.000000 0.000000 0.000000 0.000000 0.000000 0.000000 0.000000 0.000000 0.000000 0.000000 0.000000 0.000000 0.000000 0.000000 0.000000 0.000000 0.000000 0.000000 0.000000 0.000000 0.000000 0.000000 0.000000 0.000000 0.000000 0.000000 0.000000 0.000000 0.000000 0.000000 0.000000 0.000000 0.000000 0.000000 0.000000 0.000000 0.000000 0.000000 0.000000 0.000000 0.000000 0.000000 0.000000 0.000000 0.000000 0.000000 0.000000 0.000000 0.000000 0.000000 0.000000 0.000000 0.000000 0.000000 0.000000 0.000000 0.000000 0.000000 0.000000 0.000000 0.000000 0.000000 0.000000 0.000000 0.000000 0.000000 0.000000 0.000000 0.000000 0.000000 0.000000 0.000000 0.000000 0.000000 0.000000 0.000000 0.000000 0.000000 0.000000 0.000000 0.000000 0.000000 0.000000 0.000000 0.000000 0.000000 0.000000 0.000000 0.000000 0.000000 0.000000 0.000000 0.000000 0.000000 0.000000 0.000000 0.000000 0.000000 0.000000 0.000000 0.000000 0.000000 0.000000 0.000000 0.000000 0.000000 0.000000 0.000000 0.000000 0.000000 0.000000 0.000000 0.000000 0.000000 0.000000 0.000000 0.000000 0.000000 0.000000 0.000000 0.000000 0.000000 0.000000 0.000000 0.000000 0.000000 0.000000 0.000000 0.000000 0.000000 0.000000 0.000000 0.000000 0.000000 0.000000 0.000000 0.000000 0.000000 0.000000 0.000000 0.000000 0.000000 0.000000 0.000000 0.000000 0.000000 0.000000 0.000000 0.000000 0.000000 0.000000 0.000000 0.000000 0.000000 0.000000 0.000000 0.000000 0.000000 0.000000 0.000000 0.000000 0.000000 0.000000 0.000000 0.000000 0.000000 0.000000 0.000000 0.000000 0.000000 0.000000 0.000000 0.000000 0.000000 0.000000 0.000000 0.000000 0.000000 0.000000 0.000000 0.000000 0.000000 0.000000 0.000000 0.000000 0.000000 0.000000 0.000000 0.000000 0.000000 0.000000 0.000000 0.000000 0.000000 0.000000 0.000000 0.000000 0.000000 0.000000 0.000000 0.000000 0.000000 0.000000 0.000000 0.000000 0.000000 0.000000 0.000000 0.000000 0.000000 0.000000 0.000000 0.000000 0.000000 0.000000 0.000000 0.000000 0.000000 0.000000 0.000000 0.000000 0.000000 0.000000 0.000000 0.000000 0.000000 0.000000 0.000000 0.000000 0.000000 0.000000 0.000000 0.000000 0.000000 0.000000 0.000000 0.000000 0.000000 0.000000 0.000000 0.000000 0.000000 0.000000 0.000000 0.000000 0.000000 0.000000 0.000000 0.000000 0.000000 0.000000 0.000000 0.000000 0.000000 0.000000 0.000000 0.000000 0.000000 0.000000 0.000000 0.000000 0.000000 0.000000 0.000000 0.000000 0.000000 0.000000 0.000000 0.000000 0.000000 0.000000 0.000000 0.000000 0.000000 0.000000 0.000000 0.000000 0.000000 0.000000 0.000000 0.000000 0.000000 0.000000 0.000000 0.000000 0.000000 0.000000 0.000000 0.000000 0.000000 0.000000 0.000000 0.000000 0.000000 0.000000 0.000000 0.000000 0.000000 0.000000 0.000000 0.000000 0.000000 0.000000 0.000000 0.000000 0.000000 0.000000 0.000000 0.000000 0.000000 0.000000 0.000000 0.000000 0.000000 0.000000 0.000000 0.000000 0.000000 0.000000 0.000000 0.000000 0.000000 0.000000 0.000000 0.000000 0.000000 0.000000 0.000000 0.000000 0.000000 0.000000 0.000000 0.000000 0.000000 0.000000 0.000000 0.000000 0.000000 0.000000 0.000000 0.000000 0.000000 0.000000 0.000000 0.000000 0.000000 0.000000 0.000000 0.000000 0.000000 0.000000 0.000000 0.000000 0.000000 0.000000 0.000000 0.000000 0.000000 0.000000 0.000000 0.000000 0.000000 0.000000 0.000000 0.000000 0.000000 0.000000 0.000000 0.000000 0.000000 0.000000 0.000000 0.000000 0.000000 0.000000 0.000000 0.000000 0.000000 0.000000 0.000000 0.000000 0.000000 0.000000 0.000000 0.000000 0.000000 0.000000 0.000000 0.000000 0.000000 0.000000 0.000000 0.000000 0.000000 0.000000 0.000000 0.000000 0.000000 0.000000 0.000000 0.000000 0.000000 0.000000 0.000000 0.000000 0.000000 0.000000 0.000000 0.000000 0.000000 0.000000 0.000000 0.000000 0.000000 0.000000 0.000000 0.000000 0.000000 0.000000 0.000000 0.000000 0.000000 0.000000 0.000000 0.000000 0.000000 0.000000 0.000000 0.000000 0.000000 0.000000 0.000000 0.000000 0.000000 0.000000 0.000000 0.000000 0.000000 0.000000 0.000000 0.000000 0.000000 0.000000 0.000000 0.000000 0.000000 0.000000 0.000000 0.000000 0.000000 0.000000 0.000000 0.000000 0.000000 0.000000 0.000000 0.000000 0.000000 0.000000 0.000000 0.000000 0.000000 0.000000 0.000000 0.000000 0.000000 0.000000 0.000000 0.000000 0.000000 0.000000 0.000000 0.000000 0.000000 0.000000 0.000000 0.000000 0.000000 0.000000 0.000000 0.000000 0.000000 0.000000 0.000000 0.000000 0.000000 0.000000 0.000000 0.000000 0.000000 0.000000 0.000000 0.000000 0.000000 0.000000 0.000000 0.000000 0.000000 0.000000 0.000000 0.000000 0.000000 0.000000 0.000000 0.000000 0.000000 0.000000 0.000000 0.000000 0.000000 0.000000 0.000000 0.000000 0.000000 0.000000 0.000000 0.000000 0.000000 0.000000 0.000000 0.000000 0.000000 0.000000 0.000000 0.000000 0.000000 0.000000 0.000000 0.000000 0.000000 0.000000 0.000000 0.000000 0.000000 0.000000 0.000000 0.000000
</DataArray>
<DataArray type="Float64" Name="Velocity" NumberOfComponents="3" format="ascii">