<VTKFile type="PolyData">
<PolyData>
<Piece NumberOfPoints="2064" NumberOfVerts="2064" NumberOfLines="0" NumberOfStrips="0" NumberOfPolys="0">
<PointData>
<DataArray type="Float64" Name="Pressure" format="ascii">
 24757.096362 24643.560075 24428.106143 24107.667483 23707.744766 23270.872822 22812.892193 22288.397520 21608.310314 20702.555479 19598.318372 18429.872316 17331.220468 16321.261167 15383.280493 14507.455588 13633.264176 12693.000020 11733.973566 10871.895129 10176.155827 9643.991191 9221.340286 8837.353877 8436.496082 8006.009122 7578.484687 7189.293053 6844.998724 6538.286504 6264.262482 6017.289393 5787.174563 5564.615475 5344.787432 5126.182226 4908.767218 4692.978856 4479.325698 4268.262870 4060.171809 3855.373722 3654.148810 3456.752070 3263.424139 3074.398884 2889.911309 2710.212211 2535.602381 2366.513549 2203.691588 2048.575443 1903.929593 1774.418497 1666.099011 1584.294380 1531.819469 1508.321730 24665.670836 24555.770855 24332.709875 23979.506733 23516.945413 23025.468537 22561.124073 22072.926832 21434.574675 20510.474194 19319.413714 18091.864157 17067.389002 16152.031806 15284.276318 14529.801280 13763.215884 12776.267566 11697.986700 10773.486935 10075.074489 9582.186193 9214.322481 8872.609318 8475.747639 8002.317715 7534.239462 7139.644911 6801.863703 6498.359792 6230.258227 5995.569329 5776.061356 5559.455610 5342.466265 5125.222266 4908.488712 4693.064117 4479.621506 4268.692932 4060.697198 3855.974217 3654.813504 3457.474089 3264.196916 3075.212050 2890.743582 2711.016123 2536.269724 2366.798739 2203.055682 2045.938367 1897.589002 1762.911782 1650.027425 1566.084089 1513.283307 1489.937823 24530.854979 24432.005420 24219.014986 23829.451582 23226.216254 22591.630076 22119.125055 21766.375812 21310.599195 20319.885747 18815.193609 17391.533629 16625.857324 15894.943844 15062.784722 14607.838230 14197.201647 13023.342420 11573.233326 10516.028639 9827.717427 9439.659261 9216.942131 9002.295119 8628.759199 8001.199648 7404.610588 7029.434965 6721.926825 6412.109362 6152.110080 5953.527724 5759.282166 5552.149149 5339.255096 5123.863287 4908.007833 4693.024415 4479.820822 4269.034677 4061.133833 3856.481654 3655.378825 3458.088923 3264.852690 3075.894326 2891.421590 2711.619447 2536.633742 2366.535656 2201.251861 2040.475079 1883.922219 1735.548264 1609.975526 1522.377332 1470.497015 1448.255288 24352.291337 24286.544198 24134.011413 23783.615481 23120.256498 22420.183700 22114.196110 22167.377572 22143.259389 20682.203914 18360.184751 16826.854808 16597.386686 15856.125162 14739.111538 14708.559060 14841.085060 13307.554307 11488.212333 10315.260094 9563.750923 9285.387391 9232.894458 9123.253475 8738.587824 7749.464955 7139.814174 6934.244107 6637.850534 6274.445085 6055.349575 5931.420286 5748.127498 5547.077902 5336.945947 5122.856884 4907.648769 4693.009731 4480.004419 4269.343068 4061.528751 3856.942623 3655.894426 3458.651851 3265.456163 3076.527992 2892.064268 2712.223104 2537.085105 2366.559481 2200.148807 2036.312701 1870.486158 1687.491303 1533.332525 1448.575976 1403.172471 1384.174650 24119.668758 24110.332879 24059.931426 23855.148515 20216.573769 17796.548305 17365.361729 19493.759243 19205.926029 4796.888979 16975.159798 14048.512882 21910.111288 7478.231336 18223.511104 22773.226291 24157.477561 16913.736180 18689.796652 15850.556790 20803.247501 19913.871369 13612.211541 16516.257859 16606.824453 22817.756796 16568.328123 18574.546646 16384.114153 15958.873500 16618.117421 19470.830830 16373.859287 14085.161094 17828.468696 21988.082611 8059.847112 18647.686022 18520.657212 15895.749748 14761.475886 20083.476620 16697.692698 18317.217550 1395.210382 1345.219508 1315.221620 1301.847499 23808.778062 23872.228793 23992.104821 24068.816233 19868.437113 12211.937578 16013.629885 7364.498332 15733.268836 16653.494707 8238.970044 13062.831004 13215.586986 14694.360649 12973.632690 13954.398245 14709.854945 13227.453498 15839.715963 13604.105378 14269.466389 21176.116256 13124.818988 13649.192719 15417.111122 15363.170904 14213.918885 16424.688016 16611.132477 16900.764670 16089.912365 15608.748843 19173.672909 15354.124007 14914.836038 17994.227996 15941.760574 17019.526101 17974.298223 18131.684916 19006.338240 15021.832538 16282.049619 16360.489701 1244.443114 1230.289032 1215.384852 1207.858734 23396.620110 23536.305461 23858.404607 24133.941605 12109.997560 7210.560777 11010.264679 7343.806543 7286.719743 10549.294260 10314.997081 16989.306190 15446.902316 14260.637261 7412.926616 13332.983693 9433.983232 14885.371347 12189.641345 13338.604276 6709.441659 13728.701197 13847.576083 20269.721507 18897.967751 21495.988892 14909.088703 17151.400210 15458.115670 15739.818644 16231.366150 18807.653114 23331.447971 17914.833026 17863.138569 20466.141601 17975.730791 17493.469191 11159.657501 19600.108632 23405.439996 16361.323938 21186.376415 23741.233413 1123.254949 1118.702999 1112.538975 1109.051707 22867.129766 23036.134067 23386.435868 23546.948406 11550.184264 13855.944678 7531.577846 15463.008315 14684.303433 6711.729137 12638.684817 12498.573014 12559.167469 12449.181762 7345.590845 12079.997303 6532.590966 14677.438798 14407.510018 12792.802282 11933.579808 9773.600802 6646.444243 14329.089267 11203.911830 7704.960730 13485.301580 15708.374795 17639.796149 11530.348286 14335.845061 7340.669474 21629.955268 13655.981280 16816.302082 15311.533692 23313.487604 5711.605903 12594.394773 1271.710398 20606.499743 19987.929848 18103.619445 16061.076804 1015.359331 1014.007524 1011.714384 1010.380473 22225.673746 22381.955430 22730.318550 22926.537233 6265.426592 14220.019897 14940.986099 12187.950794 15545.122795 22633.453371 12844.905647 10023.969944 17991.923233 13324.974273 7038.072179 19741.115480 13840.700340 7987.257326 14651.575554 14426.347431 13226.258978 13055.947979 7082.195549 14744.248629 15439.145778 15135.216344 7040.084075 15128.501280 12163.064735 10409.383067 24121.773001 11196.422056 13457.841883 13270.972014 15981.235122 14378.234650 3752.230005 13289.503809 15391.686565 13480.160472 9913.512851 7757.211891 12977.901445 7321.096072 915.735256 915.573838 914.914574 914.578412 21503.176020 21565.487596 21579.720696 21434.071004 8194.252705 14010.524384 6869.025413 7178.545835 6512.255381 7088.138726 15210.313853 8463.165047 13164.603661 3429.431712 13177.947228 3190.135177 7051.029070 8718.100082 17194.978537 5880.025504 14949.898409 8708.757582 6727.465618 11863.268739 6959.285455 14867.063717 12090.026017 5448.778559 6885.206820 11284.169270 22343.880463 8946.603796 8288.423867 7996.713616 12806.587053 15132.879138 13259.596808 14495.474864 20896.196595 15533.324978 15267.353367 12358.409433 8975.181766 19071.424768 822.470454 822.770924 822.787902 822.882414 20778.331023 20846.204109 20964.882109 20969.148942 3438.643347 5716.069082 2669.263881 3609.529588 6638.226718 8362.061537 8089.115656 7730.176793 7537.626345 3561.159415 8730.075428 3658.619093 8508.258464 7166.164988 3808.399391 3660.502637 3555.557273 5967.663236 7828.069547 7897.114351 10409.816615 1844.651341 5892.489028 14013.171645 15098.791107 13283.089172 10077.001781 21502.172890 7279.677301 13913.262838 14139.364411 11962.774925 7754.445642 12075.075055 13628.190571 7031.365823 17901.513770 22779.418990 13118.201528 1920.069775 734.708326 735.184176 735.473455 735.743357 20077.714966 20122.615081 20111.709149 20050.631362 2970.686484 3532.928340 2576.131844 7781.641060 2135.407866 2952.405740 5632.816031 3733.548546 5145.668333 9089.838364 3437.503031 4203.999903 8258.373144 5731.251053 7534.788948 3072.572459 7385.669344 3403.457232 2846.435864 4262.015531 6340.238178 6946.305765 5487.342668 14251.337493 8556.224195 16255.420504 7649.920472 21340.916523 20123.049028 22163.774206 12222.861454 18137.116540 12381.682207 15578.510550 24203.781364 -9368.160703 6629.482665 16085.501846 9984.312725 11068.562571 651.981403 652.514858 652.906008 653.240166 19425.448780 19537.119232 19690.402758 19695.629016 2816.103074 4439.230655 7247.884239 2014.460731 2238.613310 5792.582661 3367.587632 3206.122568 2988.450174 8042.929137 2735.395897 3767.618283 8459.097962 3422.690677 3915.442663 8291.335082 4607.859171 7290.626258 6304.074928 7214.177328 7180.104635 7162.499937 7468.274651 3350.706256 6896.091622 10285.451091 21137.637771 8089.292156 7248.139415 12653.160417 12576.237404 5313.295379 12633.305202 12458.013326 11937.436619 11784.448762 7556.917008 8081.060059 12200.651556 23808.229775 573.967435 574.508543 574.929153 575.279546 18777.423254 18928.604912 19099.501848 18998.313821 1878.569613 2964.275940 8167.320030 7816.346584 3804.132104 6357.061073 7001.460362 2977.016243 3287.985926 2863.870125 7225.374021 3677.651495 3162.225467 4657.416950 2878.083585 3134.988022 5730.611632 6789.792527 3505.035082 3409.872177 5586.163957 2990.574569 6264.778054 8626.397218 3404.980350 8288.875347 2987.863172 6953.303702 8644.978640 13959.957877 8237.392158 7258.483430 4718.299216 6558.057292 11317.884561 9677.001626 38826.750429 22187.338323 18466.580781 11025.481870 500.394746 500.921605 501.340468 501.686141 18089.135728 18224.925606 18310.279286 18248.333235 7181.047966 2515.551067 6559.946336 6010.085861 6766.263727 8262.727192 13293.335985 6760.127013 3471.231604 7762.019844 8024.423147 7126.676110 5643.111956 2967.664392 6161.699029 3601.211150 2741.148354 8555.018548 3703.987887 4750.569857 3009.057180 2430.827407 3101.459950 6242.599714 13950.215621 5441.129350 2829.351873 6635.988952 3134.401484 3888.953748 7396.242668 7923.660687 6483.939654 8099.498240 7155.296895 8680.630840 6629.350740 16421.601569 15959.167974 2642.809513 431.005407 431.507989 431.911331 432.242909 17368.686820 17467.533059 17525.208135 17558.642732 8825.484003 2318.779297 6402.724583 10547.657141 13379.218062 13250.005919 17790.285747 6134.385563 8245.335297 8359.584564 10420.418343 3282.561808 1874.802322 6880.171981 7827.333180 7257.236980 8574.497764 6607.940790 7163.441645 2360.925380 5565.887029 2178.488114 2623.226406 2353.380984 14275.035007 3074.664165 3803.610326 6629.388531 4682.172463 3539.313398 2826.086135 3647.198863 8392.274259 7232.026808 3629.641724 7667.892875 7517.710165 16808.938409 7412.210959 7616.440787 365.541860 366.015339 366.396885 366.710028 16692.357429 16749.968905 16726.550974 16687.465933 6527.223881 7057.077499 6316.374716 13998.090268 7429.479734 5570.209538 2463.070463 5744.621296 12583.447568 6257.491332 6732.375195 2953.263686 6396.256437 6555.099935 26313.230830 8097.966596 9978.121150 5037.621802 7775.013314 16916.415231 14506.459577 7636.970241 8760.936403 7671.354653 7077.562177 4543.861467 5314.424054 4286.233205 8248.643174 4376.671332 2095.365150 6713.525591 8693.785281 8969.203886 6978.893587 6176.362469 6529.781379 4407.528570 7589.998438 10758.784922 303.743293 304.185281 304.542110 304.834758 16140.428845 16225.061983 16320.254808 16402.178900 2473.165920 4925.475013 7797.164864 8840.104026 7560.246485 3938.723067 5723.248207 18423.650762 15771.235323 3770.489615 8051.289296 7973.309755 5840.109481 5313.200255 11200.349265 5799.295751 8787.904069 18946.381617 5896.240536 11505.379823 2273.880617 5455.974786 13787.336253 6841.381045 6503.891303 6153.535777 6355.131715 13999.593456 2556.599317 11811.441413 3361.287828 7330.486215 8781.373825 5384.285429 14014.129159 44951.584451 4580.848751 3730.344074 5783.859357 3642.075018 245.346121 245.755512 246.086316 246.357542 15706.055284 15837.130496 16125.840405 16479.398179 5989.740595 8626.542670 6806.272189 5921.012659 5576.295278 15817.589348 13412.869507 3073.307823 8066.015207 11006.131551 14077.588946 6372.520893 6927.886626 1988.850632 2425.763712 6983.550401 14564.672307 8103.145523 39119.136666 2593.622115 8038.152602 6793.183965 7555.557839 14344.586417 15230.174554 10952.362458 5808.875630 11222.592931 3702.615368 5884.123219 9050.824580 7219.517885 7274.820570 7077.476514 5761.203878 3506.667985 6391.460913 6584.731008 8376.443057 8233.530209 190.086151 190.462639 190.766996 191.016515 15354.515807 15474.811820 15664.137622 15919.260659 2266.348830 9834.461134 15511.578998 17365.990659 6630.205014 11444.560639 3450.314640 4612.152403 19066.170302 16177.493762 6726.558210 5931.795800 14257.222607 3368.923298 6524.154777 2910.490835 7317.819683 2839.329661 3417.139636 3099.821470 7284.448057 15759.018986 -4228.156716 1996.290797 14942.685088 15517.670137 4952.929895 12837.142788 7271.565152 6438.157313 6552.731004 10916.547952 21932.513888 7148.629557 7763.675675 8167.898468 7965.716108 7165.272004 3483.890187 5843.296324 137.701413 138.045266 138.323324 138.551283 15085.912160 15238.165398 15515.951739 15801.053991 11487.713687 8059.286491 7389.705520 14277.619030 5321.960400 7057.949942 7584.811450 15233.196598 14479.270783 17840.280118 20386.481937 9792.211487 3121.234729 7341.995441 11361.934097 6992.306198 11261.156925 23583.761569 7099.116768 2641.334265 3518.160138 15059.573641 5538.582247 3431.476627 2591.722542 9839.647272 12863.789369 5534.299687 23778.137786 18667.495928 21874.618214 8094.508366 9929.178484 9366.640869 16465.320472 11594.020136 7307.379633 7197.164931 3707.192930 5021.726603 87.935113 88.247072 88.499397 88.706271 14878.796866 15051.644719 15363.823128 15739.406451 6931.553833 8149.822489 56131.265047 15232.731391 15482.605190 8511.345549 6899.833775 16288.344196 15027.697946 5196.415037 15694.352782 7444.293841 5472.122287 7653.275156 20071.532270 14030.346511 14296.782167 8706.612079 16041.772459 11332.394552 17080.833208 8890.572487 12509.270560 7453.754076 33575.767920 7028.978023 12306.353370 15002.639659 12798.299550 15375.553472 14467.378924 14506.328202 2851.412555 14311.703988 15443.732925 14890.090282 9531.185760 4456.835151 12384.617104 8037.209447 40.538500 40.819700 41.047195 41.233730 14718.530904 14933.687508 15356.097212 15864.016126 14176.978191 6641.180821 11653.437351 7113.236540 11825.205327 15575.036851 3246.477061 20181.980088 7057.750832 -1752.146666 15995.529255 20127.866763 15120.364831 3423.650064 14971.621954 17540.280693 9019.028055 8698.004861 15145.981142 2545.948659 2970.904743 6203.419175 21805.136604 16674.943377 13653.962798 54336.304469 16138.730469 10939.056747 15404.626411 14629.749323 13444.584519 7926.171800 12738.716440 13645.830009 7641.831489 14689.312170 7387.020100 15460.192190 19046.007650 8064.362731 -4.726534 -4.474622 -4.270778 -4.103613 14585.743745 14829.043257 15269.819887 15836.549455 9845.813568 17111.846877 10266.668136 5637.178095 14989.763889 14963.022506 16002.635103 15156.970812 16495.368959 22900.269626 15095.983764 6816.318223 15972.345148 13295.269011 10382.556496 16533.959928 23922.124252 10945.873379 23569.787211 6723.986311 16204.731577 2577.364375 3815.373534 7579.185310 2682.787037 12450.348790 14405.591541 15297.175420 13074.846632 4806.615814 14911.783247 8072.697942 19376.303967 23424.666826 13899.871078 15061.378969 6826.685392 13084.313069 6876.806422 6331.924084 -48.085202 -47.860832 -47.679230 -47.530283 14463.011827 14771.801674 15426.496710 16253.148943 -89.747971 -89.549179 -89.388238 -89.256213 14294.207221 14650.286697 15501.257468 16511.018461 -129.909158 -129.733824 -129.591835 -129.475335 14035.985965 14317.432038 14862.934371 15539.088005 -168.745977 -168.591886 -168.467065 -168.364627 13730.978988 13966.930854 14426.748926 14944.000318 -206.418036 -206.282937 -206.173467 -206.083608 13409.573303 13617.934988 14049.544615 14521.218843 -243.067265 -242.948922 -242.853001 -242.774245 13081.542498 13237.712688 13498.652921 13819.500944 -278.818231 -278.714471 -278.630348 -278.561261 12751.455701 12894.959443 13197.316138 13599.419114 -313.778794 -313.687552 -313.613559 -313.552778 12391.425068 12516.851100 12782.345673 13225.880372 -348.041066 -347.960413 -347.894994 -347.841246 11988.592283 12080.630639 12219.664961 12438.909667 -381.682581 -381.610752 -381.552484 -381.504603 11552.981155 11636.084085 11825.411212 12017.256934 -414.767645 -414.703057 -414.650660 -414.607600 11087.146437 11109.736601 11106.837840 11129.333587 -447.348789 -447.290049 -447.242399 -447.203238 10630.663270 10613.945006 10494.114288 10361.851400 -479.468269 -479.414177 -479.370303 -479.334247 10211.755804 10241.474530 10323.389143 10309.401762 -511.159561 -511.109105 -511.068190 -511.034569 9794.574046 9841.982515 10002.761113 10093.093841 -542.448812 -542.401162 -542.362532 -542.330794 9355.963504 9352.642392 9361.642107 9316.836575 -573.356200 -573.310690 -573.273806 -573.243509 8928.430087 8858.671810 8682.556717 8455.310319 -603.897177 -603.853292 -603.817736 -603.788536 8561.883736 8463.838571 8251.098996 7979.876090 -634.083582 -634.040936 -634.006397 -633.978037 8273.541104 8168.835931 7938.220897 7649.083097 -663.924594 -663.882916 -663.849169 -663.821465 8050.556991 7961.827740 7809.516343 7571.986707 -693.427543 -693.386649 -693.353546 -693.326376 7862.331469 7767.349971 7592.892003 7297.228155 -722.598555 -722.558336 -722.525785 -722.499073 7703.000565 7564.939039 7241.891048 6854.774500 -751.443059 -751.403458 -751.371413 -751.345119 7604.494710 7471.609802 7191.304749 6867.751474 -779.966152 -779.927151 -779.895595 -779.869704 7571.231379 7457.793662 7209.939115 6926.762236 -808.172849 -808.134452 -808.103386 -808.077899 7588.027982 7516.085421 7387.322867 7220.715390 -836.068219 -836.030440 -835.999875 -835.974800 7622.481100 7576.134032 7500.400738 7374.858325 -863.657437 -863.620292 -863.590239 -863.565584 7651.807969 7612.298272 7559.362571 7463.418565 -890.945766 -890.909263 -890.879728 -890.855496 7671.040729 7618.268622 7520.535105 7398.589282 -917.938484 -917.902618 -917.873596 -917.849785 7693.173359 7625.525275 7473.274365 7285.931993 -944.640772 -944.605521 -944.576995 -944.553588 7734.413002 7673.210715 7550.011873 7375.302006 -971.057579 -971.022903 -970.994839 -970.971810 7791.909460 7742.776752 7669.155832 7576.040775 -997.193477 -997.159316 -997.131667 -997.108976 7855.108564 7803.099364 7704.350534 7623.160685 -1023.052515 -1023.018792 -1022.991494 -1022.969089 7924.410068 7876.871189 7779.150786 7718.206112 -1048.638083 -1048.604703 -1048.577681 -1048.555499 7997.347961 7977.106452 7975.867832 8028.825207 -1073.952790 -1073.919645 -1073.892810 -1073.870780 8058.933809 8044.635993 8047.009645 8132.859322 -1098.998364 -1098.965333 -1098.938588 -1098.916631 8115.573009 8095.781399 8043.277551 8057.053277 -1123.775573 -1123.742528 -1123.715771 -1123.693801 8187.828727 8203.512408 8248.594625 8282.137230 -1148.284179 -1148.250988 -1148.224111 -1148.202042 8264.360421 8315.609107 8446.874432 8568.149738 -1172.522912 -1172.489441 -1172.462337 -1172.440080 8321.162866 8379.409440 8486.700410 8602.146268 -1196.489474 -1196.455592 -1196.428154 -1196.405624 8342.375751 8417.541826 8583.539792 8761.626000 -1220.180569 -1220.146150 -1220.118279 -1220.095392 8302.166472 8398.857493 8635.899864 8886.075280 -1243.591960 -1243.556889 -1243.528490 -1243.505169 8176.393704 8261.363471 8440.481866 8652.255456 -1266.718548 -1266.682719 -1266.653707 -1266.629885 7978.370345 8052.078722 8202.277362 8392.289228 -1289.554470 -1289.517792 -1289.488095 -1289.463710 7738.011521 7819.069269 7998.637690 8189.071693 -1312.093222 -1312.055621 -1312.025175 -1312.000179 7471.239574 7551.413073 7694.042967 7793.120145 -1334.327800 -1334.289217 -1334.257973 -1334.232324 7185.414028 7291.409207 7526.909448 7629.821934 -1356.250858 -1356.211248 -1356.179160 -1356.152826 6865.980031 6946.728146 7075.937244 7125.395473 -1377.854886 -1377.814210 -1377.781228 -1377.754173 6528.811159 6603.610278 6745.349895 6813.254575 -1399.132419 -1399.090622 -1399.056653 -1399.028818 6184.038859 6238.775068 6313.675322 6299.784841 -1420.076290 -1420.033246 -1419.998070 -1419.969315 5845.665863 5891.606548 5971.980368 5936.559359 -1440.679976 -1440.635351 -1440.598420 -1440.568387 5518.310587 5548.780124 5613.969704 5558.124947 -1460.938147 -1460.891076 -1460.851020 -1460.818803 5207.341457 5204.626731 5158.629665 5024.070850 -1480.847688 -1480.796004 -1480.749449 -1480.712802 4927.006150 4932.833063 4940.779914 4832.311744 -1500.409832 -1500.348234 -1500.286982 -1500.240373 4660.422892 4666.821435 4683.801303 4576.690594 -1519.634873 -1519.550711 -1519.454947 -1519.384769 4395.076055 4369.037101 4303.743075 4160.092399 -1538.552739 -1538.416780 -1538.238748 -1538.111034 4153.545579 4089.708141 3918.755335 3762.668148 -1557.235923 -1556.984996 -1556.609249 -1556.336375 3965.615378 3923.131830 3846.524963 3755.882653 -1575.840865 -1575.366053 -1574.506980 -1573.849893 3819.408391 3780.402892 3698.249693 3603.834852 -1594.658920 -1593.919106 -1591.819951 -1590.080049 3710.180007 3684.852146 3638.688060 3576.345972 -1615.759734 -1614.394736 -1608.224738 -1603.411918 3630.834795 3621.277832 3632.727613 3630.904421 -1657.407860 -1643.713748 -1621.324870 -1609.632376 3578.344885 3546.204507 3461.848262 3410.946397 -1705.980431 -1663.086476 -1618.360517 -1601.172376 3577.659856 3554.894675 3493.324680 3445.015972 -1684.550284 -1628.886251 -1587.834080 -1572.361942 3627.473799 3653.423760 3723.140525 3741.881948 -1578.472907 -1554.877968 -1534.553111 -1524.495609 3683.620673 3750.844137 3886.669507 3889.505160 -1485.261560 -1477.845448 -1468.673787 -1463.465388 3697.708815 3789.824451 3980.038505 4001.227286 -1404.204463 -1401.316408 -1397.388415 -1394.951287 3640.478648 3715.723604 3859.689889 3857.513062 -1326.499443 -1325.298036 -1323.608612 -1322.511889 3520.858431 3545.317174 3572.007836 3515.469709 -1249.721257 -1249.183292 -1248.438663 -1247.940759 3381.091596 3364.876076 3304.212657 3213.682216 -1172.909415 -1172.642284 -1172.294873 -1172.055616 3255.944228 3233.225778 3177.701177 3097.594308 -1095.675722 -1095.521198 -1095.341063 -1095.212098 3147.045794 3128.532911 3091.814318 3034.955279 -1017.859856 -1017.753216 -1017.644411 -1017.562789 3042.813893 3027.033007 3009.520158 2984.595052 -939.396288 -939.311564 -939.235116 -939.175100 2938.750437 2914.916712 2871.249893 2845.634438 -860.259696 -860.188079 -860.130525 -860.083230 2844.148858 2819.981094 2772.431700 2761.424940 -780.441031 -780.383401 -780.345748 -780.311894 2762.644950 2748.943342 2733.620305 2753.842602 -699.934087 -699.901414 -699.899705 -699.889974 2683.121964 2685.468917 2713.528180 2748.753002 -618.721467 -618.743475 -618.821449 -618.864703 2589.200952 2590.957437 2592.010769 2587.378926 -536.748167 -536.897894 -537.161953 -537.327359 2479.027513 2485.035356 2514.849729 2549.235220 -453.859764 -454.317282 -455.021757 -455.469621 2353.944122 2353.433594 2352.877224 2357.791364 -369.646724 -370.872638 -372.621797 -373.708640 2224.097835 2215.281580 2201.981333 2208.143241 -283.021044 -286.291299 -290.496179 -292.945857 2103.763483 2085.097451 2047.522813 2048.736584 -190.904127 -200.309771 -210.027651 -215.006348 2007.602960 1982.282619 1920.560343 1895.777085 -83.098057 -115.391122 -134.488982 -143.067246 1943.935717 1929.628173 1907.625853 1890.521779 1849.016353 1713.334728 1655.175902 1767.786366 1861.097818 1933.303403 1997.769593 2056.351772 2109.208527 2156.048171 2196.526122 2230.356345 2257.337785 2277.356028 2290.378477 2296.447611 2295.672978 2288.222061 2274.310354 2254.191270 2228.146510 2196.477382 2159.497367 2117.525988 2070.883935 2019.889274 1964.854564 1906.084683 1843.875221 1778.511301 1710.266746 1639.403516 1566.171361 1490.807662 1413.537421 1334.573373 1254.116189 1172.354727 1089.466265 1005.616600 920.959726 835.636468 749.770595 663.458858 576.746317 489.565284 401.580147 311.765372 217.098612 107.474633 11.814532 -41.177442 -69.471116 -81.392637 1904.652422 1895.549860 1878.987146 1859.995492 1832.666019 1779.749938 1766.893130 1810.397821 1872.954037 1937.338635 1998.788345 2056.064181 2108.302851 2154.831354 2195.145135 2228.887230 2255.824201 2275.826434 2288.853741 2294.944220 2294.204315 2286.798887 2272.941049 2252.882045 2226.901659 2195.299570 2158.387922 2116.485178 2069.911206 2018.983451 1964.014009 1905.307415 1843.159014 1777.853755 1709.665347 1638.855681 1565.674477 1490.359122 1413.134654 1334.213873 1253.797558 1172.074741 1089.223020 1005.408831 920.787565 835.503247 749.687157 663.453949 576.892032 490.041430 402.848419 315.105012 226.607143 139.885160 64.591897 11.432759 -20.235677 -33.942044 1882.336432 1875.186322 1861.169792 1842.974257 1822.300855 1804.498275 1806.946121 1837.138814 1886.072893 1942.771221 2000.655575 2056.279234 2107.735443 2153.880656 2193.999771 2227.640824 2254.527084 2274.508899 2287.536424 2293.642616 2292.930661 2285.562928 2271.750380 2251.742347 2225.816922 2194.272342 2157.419553 2115.576064 2069.060997 2018.191231 1963.278432 1904.626823 1842.531519 1777.277310 1709.137795 1638.374799 1565.238015 1489.964829 1412.780311 1333.897326 1253.516769 1171.827883 1089.008684 1005.226508 920.638777 835.394239 749.635298 663.502974 577.148295 490.759976 404.635352 319.372970 236.405880 159.030390 92.799245 42.851497 11.128761 -3.067597 1873.023248 1866.691138 1853.981647 1837.765110 1822.090720 1813.603364 1821.222689 1849.000777 1892.995770 1945.953140 2001.703892 2056.225143 2107.119267 2152.971741 2192.933483 2226.488367 2253.329041 2273.291056 2286.317106 2292.435987 2291.748127 2284.413708 2270.641764 2250.679870 2224.804548 2193.312670 2156.514048 2114.725263 2068.264716 2017.448725 1962.588538 1903.988065 1841.942193 1776.735549 1708.641626 1637.922178 1564.826864 1489.593066 1412.445875 1333.598208 1253.251047 1171.593792 1088.804754 1005.051889 920.493991 835.282965 749.568592 663.509195 577.296068 491.209469 405.743296 321.862104 241.434098 167.644354 104.709793 56.487714 25.211217 11.006389
</DataArray>
<DataArray type="Float64" Name="Velocity" NumberOfComponents="3" format="ascii">