<VTKFile type="PolyData">
<PolyData>
<Piece NumberOfPoints="2064" NumberOfVerts="2064" NumberOfLines="0" NumberOfStrips="0" NumberOfPolys="0">
<PointData>
<DataArray type="Float64" Name="Pressure" format="ascii">
 41342.178457 40833.767771 39933.370492 38708.952550 37274.793063 35726.172970 34134.389657 32556.493929 31028.790920 29532.240828 28006.981821 26430.299093 24809.749446 23127.434277 21356.695579 19505.256726 17605.008556 15683.477941 13758.388719 11835.242686 9906.282657 7953.361996 5959.428200 3958.398694 2136.693694 773.551373 -84.642589 -598.295499 -932.791332 -1180.652571 -1381.843421 -1551.892467 -1696.608367 -1818.260156 -1918.018750 -1996.855085 -2055.821364 -2096.100924 -2118.983426 -2125.825453 -2118.016452 -2096.954110 -2064.027695 -2020.606698 -1968.032562 -1907.612429 -1840.615400 -1768.274151 -1691.799204 -1612.422232 -1531.502169 -1450.751314 -1372.618644 -1300.646742 -1239.180958 -1192.075889 -1161.559120 -1147.786264 40935.328079 40404.857566 39426.439822 38093.928631 36548.076526 34891.361821 33215.333667 31615.174660 30154.302031 28770.417593 27289.469737 25707.462513 24115.852922 22477.727126 20722.869861 18874.038839 16989.364029 15093.386270 13206.157811 11336.386157 9473.231040 7592.523775 5647.550416 3552.711238 1528.516249 217.998974 -414.178950 -753.245342 -998.971373 -1207.346140 -1391.101734 -1553.389663 -1694.657965 -1814.830107 -1914.029973 -1992.750017 -2051.817669 -2092.307343 -2115.454198 -2122.586700 -2115.079346 -2094.321513 -2061.697425 -2018.572890 -1966.285741 -1906.138230 -1839.390928 -1767.259181 -1690.915688 -1611.508373 -1530.218269 -1448.428450 -1368.201481 -1293.197740 -1228.984832 -1180.547323 -1149.793370 -1136.098217 40346.960440 39739.412747 38580.340166 37001.864358 35228.515367 33311.950746 31486.692047 29892.065912 28569.207506 27424.285224 25981.480300 24337.491092 22860.218841 21346.552438 19587.090750 17708.994776 15847.540085 13991.539225 12168.432712 10400.039268 8673.415554 6970.079591 5209.764583 2800.978677 76.094428 -1006.822020 -1001.416928 -979.185800 -1093.669948 -1246.817370 -1406.369284 -1557.912053 -1694.407947 -1812.500017 -1910.854948 -1989.308426 -2048.386195 -2089.020710 -2112.378451 -2119.753652 -2112.503187 -2092.006945 -2059.643551 -2016.774778 -1964.734345 -1904.818394 -1838.275841 -1766.296836 -1689.996466 -1610.387902 -1528.335788 -1444.497941 -1359.470196 -1276.274228 -1204.278249 -1153.398831 -1123.030096 -1109.932131 39650.306838 38937.563225 37500.349676 35460.403344 33502.908303 31446.087955 29935.921023 28840.881662 27274.185432 25919.061911 24306.414334 22682.860332 21567.551571 20211.967253 18355.827047 16362.118749 14462.694536 12647.846067 10910.479386 9284.979839 7780.309794 6359.523009 4748.238471 1908.316550 -1223.973969 -1790.484389 -1204.642066 -1103.781789 -1151.681964 -1271.507562 -1415.566273 -1560.028734 -1693.310742 -1809.978804 -1907.755675 -1986.042018 -2045.157979 -2085.935599 -2109.490497 -2117.090214 -2110.077128 -2089.822930 -2057.701253 -2015.070305 -1963.260411 -1903.563114 -1837.219061 -1765.400957 -1689.183773 -1609.482984 -1526.909198 -1441.383874 -1350.954972 -1247.224038 -1157.605819 -1107.815622 -1081.035424 -1069.779906 38967.430514 38168.916828 36459.981694 34132.023038 32530.860646 32560.224543 30453.550310 32169.622133 30586.049415 29561.061452 29775.305653 29552.544358 28525.464789 27041.396030 29622.178953 29668.397590 28790.683790 27310.441007 26037.927664 25215.493654 26760.578341 23935.169278 24624.406435 23169.629247 23518.392704 21962.288126 21879.505324 20745.847925 20135.730620 18779.508724 17500.306254 16262.061656 14783.199508 13419.046286 12250.294512 11040.221238 9849.717664 8870.541674 7805.220161 7025.011462 5680.069705 4256.679894 684.801273 1339.387556 -1073.735145 -1043.939034 -1026.086464 -1018.104031 38394.634469 37588.433386 35894.795480 33713.924153 32303.575999 30876.159356 31545.506904 30060.950740 28703.143108 28971.783820 28573.080895 28407.333481 27905.536010 25701.613195 27104.905792 28319.696680 24864.629651 25945.671254 25636.928673 24054.441391 25417.442960 24439.200414 23088.179304 23675.139186 21513.651643 20787.758653 22080.246969 18503.697963 18588.068526 17315.262166 16747.028563 15703.544030 14947.981250 13872.484292 12680.253234 11619.444462 10548.820837 9427.277562 8331.351591 7026.353329 5957.837198 4884.024587 2817.317280 2902.832611 -980.855279 -972.331818 -963.386266 -958.858641 37955.695760 37218.442995 35776.126922 33756.565820 31156.958770 32362.137951 29722.909009 31208.861009 30183.402363 30329.135356 28947.604797 29780.998679 28001.950900 28012.517796 27221.534485 26752.665710 26467.890755 27032.650412 26205.975543 25478.242344 23011.209687 23998.841797 23862.133424 22438.514223 21465.319528 20114.079290 20227.079985 19273.026416 18173.606027 17068.621351 16030.037156 15071.720275 13835.009708 13146.900877 12146.264966 11245.002335 9997.909649 8877.229647 7482.924669 6572.362117 5367.605053 4240.302562 3174.421611 1384.101898 -904.838396 -902.069015 -898.340478 -896.226527 37611.426826 36884.410095 35406.388663 33324.012506 31851.342150 32385.189931 29740.635563 31495.992329 29964.723840 30276.462179 28020.951088 29671.330876 28822.744465 30788.549588 29213.973735 27688.131663 25403.484357 26090.228261 25424.147554 24153.869663 25499.865532 24702.486660 23543.456465 22875.813096 21209.721321 20676.318796 19519.326590 18311.116826 17030.333228 16221.232630 15235.706837 14663.492966 13797.768379 12788.099397 11819.387999 10621.366595 9803.041202 8378.840112 7676.424564 6313.072967 5560.336022 4401.496383 3403.668137 2018.415224 -836.352063 -835.524462 -834.131051 -833.319429 37340.790657 36636.498683 35223.960651 33254.057476 30324.849014 30376.160952 29709.487315 30370.475049 29514.833357 28824.231218 27309.700658 28668.198824 28041.485733 26555.220561 28428.763725 27048.845646 27356.110987 27253.273845 26812.721417 26320.985099 25100.188059 23232.644372 22238.063201 22757.761855 21654.642874 20786.789598 19111.481500 18488.461090 17717.101594 17451.799778 16637.949252 15665.554050 14709.775690 13523.737584 12305.011406 10943.294564 9650.003041 8495.469578 7306.758425 6352.598814 5315.185088 4431.476634 3605.364631 2806.978569 -772.622362 -772.532341 -772.138545 -771.940148 37092.489785 36416.315351 35202.542204 33608.884455 30489.759489 29641.294272 27208.143081 29645.235160 30007.239555 28966.420698 29262.152571 28463.201360 27929.856161 29160.190843 28101.507371 26110.727489 25772.977789 25878.989698 24967.027714 24800.127545 25478.404187 23939.927755 24012.029213 22916.195047 21461.960236 20622.617399 20672.440967 19968.732045 18937.537674 17969.915471 16887.413303 15718.825906 14293.488989 12905.724102 11718.257182 10571.252823 9537.584508 8331.327707 7351.611236 6204.143651 5339.167102 4442.535866 3644.503817 2831.322942 -712.678777 -712.885669 -712.914933 -712.988257 36785.015407 36044.778190 34737.865708 33159.271192 28884.064700 30323.476103 27513.828614 29265.966014 28795.001828 29103.512633 26498.013942 26977.875559 27228.839982 27924.907735 26492.856128 25746.785514 26381.601069 26461.632076 25074.950418 24633.971524 24892.574365 24077.853636 22860.777459 21657.391878 20554.091751 20662.353081 19482.633625 18565.217403 17760.481938 17288.372759 16177.701367 15210.011398 14368.271319 13304.706171 12132.676277 10780.417613 9579.226804 8294.472237 7275.613163 6149.096276 5314.606367 4356.693007 3614.738190 2844.588725 -656.150587 -656.478755 -656.685415 -656.874976 36380.081760 35521.635185 34018.706125 32414.949191 27986.369513 29611.296870 23227.100010 27593.062015 29131.125272 24841.909427 28737.189256 27196.360351 27214.982669 23196.327312 25459.168058 25696.995018 26744.279181 23306.434796 24372.729357 24471.448154 22667.754972 22545.364426 22221.418075 21381.167742 19551.745986 19768.516324 18734.761401 18814.700732 18123.514609 17484.403842 16505.833158 15481.796941 14319.267795 12943.891597 11601.587366 10316.127787 9320.389750 8154.821023 7235.838090 6103.413635 5262.294102 4344.956184 3610.281869 2791.793378 -602.878058 -603.253868 -603.532874 -603.769945 35912.518012 34863.037222 32904.228639 31033.725151 24942.845732 27530.334172 23433.322253 24027.791312 27138.644327 22566.063092 22350.768382 24291.993623 25187.278538 23609.329688 24934.924438 22951.443582 23032.276016 24625.433036 22215.349988 22249.128391 22164.293353 22949.176553 20848.500315 20610.998126 19970.095636 20257.703500 18891.193618 18485.201822 17771.648753 17321.686880 16276.112988 15139.338600 13949.804772 12623.241457 11426.995134 10266.205450 9313.404463 8125.733144 7221.483643 6060.148309 5242.045013 4299.170015 3576.593949 2748.055862 -552.771625 -553.162896 -553.468732 -553.722936 35519.249053 34389.130191 32237.644383 30229.080977 23620.286563 24347.007705 20869.713159 22455.440642 24628.853520 21456.124145 22325.737365 23518.244849 23897.751130 21881.807534 21567.248025 21465.400049 21601.236493 21841.231206 20367.375470 21424.880747 21290.582267 20895.404083 20226.060547 21527.456690 19275.484154 18713.903352 18690.133022 18451.498727 18047.079205 17257.734135 16313.201492 15105.424830 13869.843809 12498.341693 11372.981198 10254.011324 9349.807976 8097.448996 7196.882661 6010.712328 5223.853485 4288.192326 3569.685206 2718.725260 -505.758571 -506.150520 -506.462968 -506.720570 35286.204116 34216.204579 32240.992193 30347.019884 20757.300072 22227.160730 17191.491339 19163.147394 21398.305540 18904.744867 20473.169501 20218.331499 21306.343246 17624.337396 19364.451215 20041.279981 20274.316019 20762.106596 19814.066784 21560.865971 19564.488833 19310.180822 19180.682842 19809.977631 18325.624099 17995.852353 17549.480949 17032.950155 17171.658119 17156.069429 16663.020106 15595.946083 13832.149247 12249.981019 11362.780397 10277.908655 9359.142966 8048.060308 7188.173926 5993.146662 5225.996868 4298.056630 3584.215346 2721.220162 -461.763372 -462.148728 -462.458414 -462.712913 35185.951949 34242.758481 32616.609588 30983.588757 15649.186669 19230.272764 13332.750041 14733.117289 19589.846376 14097.934761 15236.855530 19035.038354 18575.675875 15319.483730 14515.143849 19849.885390 17337.413105 19568.741261 17161.869465 18557.042054 18779.672850 19429.558317 18472.584022 17335.830648 17497.247236 17554.496491 17165.472033 16264.190604 16224.304762 16440.193431 15871.568406 14461.544613 12795.518751 11910.350608 11445.758121 10347.349506 9341.458650 7990.329614 7177.963845 5977.725824 5239.516489 4333.026107 3637.119171 2767.091338 -420.701405 -421.076267 -421.378564 -421.626658 35140.465995 34245.684278 32597.574125 30890.119000 14169.435987 12933.263237 10723.072854 13648.772782 13860.108080 11243.252355 10495.693707 12971.137863 13777.718669 12048.460011 14227.893950 16159.149097 14108.963534 15455.852999 15728.605031 18093.327999 16071.495142 16392.339603 17066.685935 16449.409131 16151.830343 15938.363528 15324.029685 15153.784008 15768.210487 15972.485128 15074.443528 13549.865792 12445.232862 12043.607328 11309.202290 10069.282158 9151.631615 7953.263013 7215.588393 5949.074466 5269.284197 4392.504834 3722.108684 2857.317039 -382.477972 -382.840047 -383.132478 -383.372342 35117.204097 34250.237283 32502.893317 30650.125733 13219.072340 11501.179257 9853.054595 11676.064019 13740.632910 11537.565682 11065.448222 12398.886328 9484.903954 9878.513756 12003.874256 13309.938963 12071.849649 11971.711311 11677.542522 12868.108197 12795.877693 13067.446456 13580.522980 13417.023078 13682.120471 14097.090176 14216.728851 14320.131049 13907.618173 13416.300644 13279.450255 12467.173591 12203.993315 11749.384086 10812.638304 9755.797584 9016.813939 7963.322723 7213.248131 5955.400871 5331.227427 4459.274500 3820.934398 2991.437237 -346.989307 -347.337146 -347.618274 -347.848815 35077.934799 34360.150723 33113.646000 31538.869327 11435.595521 9781.480227 7972.405748 11710.511801 11337.242179 10318.616464 10870.591798 9987.469651 10715.619517 9428.772934 9788.621631 11113.251385 10058.699811 9900.420121 9881.975296 9320.599345 10152.200761 9835.751885 10828.211583 10909.181052 10959.795777 11496.350585 11862.590868 11032.212698 11419.126216 12130.108643 11952.127149 11679.394484 11661.365681 11008.779375 10057.590864 9465.261051 8952.367954 8146.780322 7247.810263 6081.267613 5492.510992 4573.952124 3941.394407 3146.713138 -314.124246 -314.456896 -314.725839 -314.946370 34917.549573 34160.522111 32640.579959 30728.726713 10151.382144 9631.195519 7190.372363 10361.812356 11221.401310 10251.269582 9644.450924 8579.624727 8746.045555 9387.908766 9481.792837 9318.086211 8764.129266 8336.583738 8530.437100 9016.717984 8917.772298 7882.586387 9009.926582 8832.426353 8721.188729 8790.901559 8808.343062 9100.084195 9886.580217 10154.144601 9955.767751 10225.736031 10477.877312 9984.089747 9235.764319 8872.559318 8682.839261 7906.223336 7472.670301 6453.196934 5725.598612 4689.505036 4243.170232 3310.744797 -283.765994 -284.082838 -284.339047 -284.549131 34629.327004 33880.177464 32390.832107 30489.108985 11142.933431 8791.814353 8618.059882 9784.853763 7610.674230 9586.328131 10274.029043 9438.850067 8308.729974 8207.633453 7338.783764 7066.730169 7570.973450 7872.405261 7234.160487 7082.706065 8099.136264 7213.290837 7611.012703 7629.354499 7545.961243 6987.783072 7469.157242 7821.996153 7869.479648 7914.234128 8374.212773 8792.646833 8833.604990 8550.825370 8431.921122 8593.067132 8324.632726 7666.374234 7573.799420 7078.033711 6247.141931 5034.311506 4647.072517 3668.670213 -255.793799 -256.094465 -256.337618 -256.536996 34180.564644 33364.810414 31682.111082 29848.684062 9683.240246 9570.554527 9449.182905 10928.624605 7264.597916 6403.418847 7388.205536 7962.107280 6621.205989 6064.203700 7641.489254 6168.047520 6464.026685 6666.108806 6461.806555 5998.589529 6376.602010 6254.841085 6694.464128 6601.556158 6566.656111 6406.680859 6543.449676 6665.784967 6494.097361 6371.292621 7007.031568 7147.584334 7063.511294 7011.504502 7384.931718 7637.002791 7573.686049 7340.256554 7260.262052 6939.318960 6630.715752 5841.175089 5120.539021 4363.792224 -230.084451 -230.368763 -230.598707 -230.787257 33604.385792 32808.267017 31166.161216 29442.510734 8987.242720 10050.256265 6876.508870 9347.727560 7897.907169 7998.480200 8253.917822 5919.131398 5986.283386 5839.042508 3954.025794 5684.158835 5163.495028 5115.203860 4528.838589 5248.219203 5486.399164 5521.145917 5370.238038 5440.425482 5512.915771 5441.410938 5388.975828 5418.666658 5608.242647 5774.116542 5817.938195 5646.112050 5528.051501 5874.401516 6295.053915 6432.632225 6469.290285 6673.109163 6864.960775 6748.327916 6645.913827 6491.305819 6035.420320 5095.646262 -206.513604 -206.781547 -206.998265 -207.175972 32930.781377 32235.960724 30784.841030 29046.332166 6536.869924 8055.460419 8398.916892 8726.029741 6628.956502 6040.337251 6099.360121 4847.723892 5988.049812 6103.424934 4734.865881 5253.906811 5467.767087 5512.783761 5378.121361 3690.845068 2834.314287 3410.072486 4059.827287 3831.064216 3772.520887 3925.305280 4062.095065 4347.656021 4491.858772 4478.956247 4376.403782 4303.661287 4334.373604 4573.910818 4813.792072 4923.670630 5062.232528 5295.404544 5482.813078 5619.570683 5844.558318 6093.590912 6228.364792 6370.639570 -184.956926 -185.208620 -185.412206 -185.579148 32162.566906 31608.586842 30497.039193 28888.604590 -165.291090 -165.526770 -165.717411 -165.873741 31270.619929 30804.177451 30108.066538 28907.183897 -147.394630 -147.614626 -147.792589 -147.938525 30277.986903 29607.618753 28229.547430 26638.642450 -131.148666 -131.353391 -131.519008 -131.654822 29358.816306 28570.773540 26698.337204 24595.332307 -116.437525 -116.627459 -116.781118 -116.907129 28564.469715 27984.894693 26951.868862 25605.435451 -103.149254 -103.324935 -103.467070 -103.583633 27753.451859 27264.444965 26406.337599 25314.499450 -91.176052 -91.338062 -91.469143 -91.576643 26872.552771 26416.407017 25519.164020 24342.338199 -80.414604 -80.563562 -80.684089 -80.782936 25901.560584 25471.768337 24791.400283 23942.215223 -70.766356 -70.902906 -71.013400 -71.104021 24852.651592 24365.521907 23468.044279 22552.876837 -62.137707 -62.262512 -62.363508 -62.446342 23785.047195 23272.933778 22303.836830 21407.243290 -54.440140 -54.553874 -54.645917 -54.721410 22754.122318 22287.888356 21419.751743 20625.881355 -47.590300 -47.693640 -47.777276 -47.845877 21750.133432 21330.242594 20349.701572 19445.644846 -41.510010 -41.603631 -41.679406 -41.741562 20750.833824 20629.659407 20446.640438 19925.721196 -36.126245 -36.210813 -36.279266 -36.335417 19614.420003 19628.090024 19917.142751 19998.938897 -31.371061 -31.447229 -31.508887 -31.559467 18354.961592 18260.230859 18256.088069 18182.717460 -27.181484 -27.249888 -27.305265 -27.350694 17154.287841 16812.680147 15956.566829 15153.926758 -23.499372 -23.560626 -23.610218 -23.650904 16181.588093 15875.688475 15210.901279 14520.375329 -20.271242 -20.325936 -20.370221 -20.406554 15413.749795 15205.025204 14907.728062 14482.093482 -17.448083 -17.496780 -17.536212 -17.568566 14800.068976 14492.980799 13749.712518 13034.355980 -14.985141 -15.028376 -15.063388 -15.092116 14393.698073 14203.828046 13764.877229 13294.204610 -12.841700 -12.879977 -12.910977 -12.936414 14075.231086 14159.472868 14551.252198 14705.329036 -10.980847 -11.014640 -11.042010 -11.064471 13726.962092 13935.793412 14537.149625 14721.736693 -9.369234 -9.398985 -9.423084 -9.442861 13326.706774 13427.103427 13661.328132 13544.677507 -7.976839 -8.002958 -8.024118 -8.041485 13021.922341 12945.205161 12480.942481 11674.391877 -6.776722 -6.799591 -6.818120 -6.833327 12913.679168 12955.463467 13204.899126 13000.222238 -5.744795 -5.764764 -5.780944 -5.794225 12920.784388 12922.882529 12948.676604 12680.606838 -4.859588 -4.876978 -4.891069 -4.902637 13008.471097 13090.393419 13186.040817 12694.166221 -4.102028 -4.117131 -4.129371 -4.139419 13081.987881 13205.328686 13380.374359 12959.752805 -3.455225 -3.468307 -3.478910 -3.487615 13066.025393 13253.606617 13723.626696 13584.601167 -2.904270 -2.915572 -2.924733 -2.932255 12921.383019 13031.362137 13259.711209 12910.088876 -2.436043 -2.445782 -2.453677 -2.460159 12747.422922 12638.225163 12078.351906 10877.631618 -2.039036 -2.047406 -2.054192 -2.059764 12684.323650 12608.309106 12531.511730 12022.026699 -1.703183 -1.710358 -1.716176 -1.720954 12716.435729 12619.060083 12325.857808 11687.285965 -1.419708 -1.425843 -1.430818 -1.434905 12804.760524 12817.338481 12765.103394 12137.903398 -1.180980 -1.186213 -1.190457 -1.193943 12837.788842 13026.052664 13633.430802 13700.715849 -0.980384 -0.984837 -0.988448 -0.991414 12718.692306 12803.947012 12835.019671 12228.072357 -0.812205 -0.815983 -0.819049 -0.821567 12519.743883 12609.923824 12964.505007 12878.034673 -0.671513 -0.674712 -0.677308 -0.679440 12272.631879 12207.088231 12025.568342 11570.144093 -0.554074 -0.556777 -0.558969 -0.560770 12097.977862 11998.769520 11757.360968 11141.352454 -0.456258 -0.458535 -0.460383 -0.461901 12017.060408 11838.676592 11214.847496 10296.235927 -0.374962 -0.376876 -0.378429 -0.379706 12038.281349 12046.078295 11741.129429 10961.517533 -0.307541 -0.309146 -0.310448 -0.311519 11938.393153 12349.948067 13582.901089 14411.548547 -0.251745 -0.253088 -0.254178 -0.255073 11515.305007 11833.782439 12639.647516 13258.677334 -0.205668 -0.206789 -0.207699 -0.208446 10945.067749 11069.020614 11027.874692 10564.562092 -0.167696 -0.168630 -0.169388 -0.170011 10396.547757 10548.709429 10634.185757 10351.269954 -0.136470 -0.137246 -0.137876 -0.138393 9830.682665 10138.338074 10745.931506 11159.888162 -0.110844 -0.111487 -0.112009 -0.112439 9129.269808 9603.154581 10925.346272 12351.338560 -0.089857 -0.090389 -0.090821 -0.091176 8235.887486 8575.273716 9481.869851 10692.972275 -0.072704 -0.073143 -0.073500 -0.073793 7307.607356 7471.154126 7529.908391 7370.034997 -0.058714 -0.059076 -0.059369 -0.059611 6469.432465 6680.689555 6679.851573 6230.777924 -0.047326 -0.047623 -0.047865 -0.048063 5658.553024 6123.277470 7259.316339 8533.989632 -0.038075 -0.038319 -0.038517 -0.038680 4735.931805 5233.550811 6602.915774 8525.156587 -0.030575 -0.030775 -0.030937 -0.031070 3750.884530 4093.030644 4813.886758 5625.761553 -0.024507 -0.024669 -0.024802 -0.024911 2834.691991 3021.465798 3355.703550 3701.481670 -0.019606 -0.019739 -0.019847 -0.019935 2079.368995 2174.290164 2310.457747 2422.215879 -0.015657 -0.015764 -0.015852 -0.015924 1502.076128 1551.094649 1611.224594 1658.751590 -0.012480 -0.012567 -0.012638 -0.012697 1078.495416 1105.701055 1135.035210 1158.173128 -0.009929 -0.010000 -0.010058 -0.010105 773.718096 790.035314 805.949462 818.672956 -0.007886 -0.007943 -0.007989 -0.008028 556.112041 566.526259 575.997751 583.679520 -0.006251 -0.006297 -0.006335 -0.006366 400.991112 407.927380 413.965179 418.913310 -0.004947 -0.004984 -0.005014 -0.005039 290.242766 294.990054 299.018210 302.340298 -0.003907 -0.003937 -0.003961 -0.003981 210.930104 214.235681 217.000821 219.289103 -0.003081 -0.003105 -0.003124 -0.003140 153.913568 156.241621 158.173878 159.775601 -0.002425 -0.002444 -0.002459 -0.002472 112.756878 114.409871 115.775920 116.909094 -0.001905 -0.001920 -0.001933 -0.001943 82.924259 84.105427 85.079153 85.887037 -0.001494 -0.001506 -0.001516 -0.001524 61.210676 62.059245 62.757741 63.337226 -0.001170 -0.001179 -0.001187 -0.001194 45.343064 45.955620 46.459347 46.877159 -0.000914 -0.000922 -0.000928 -0.000933 33.702611 34.146752 34.511725 34.814367 -0.000713 -0.000719 -0.000724 -0.000728 25.131414 25.454776 25.720347 25.940497 -0.000555 -0.000560 -0.000564 -0.000567 18.797604 19.033943 19.227950 19.388727 -0.000432 -0.000435 -0.000438 -0.000441 14.100946 14.274307 14.416551 14.534399 -0.000335 -0.000338 -0.000340 -0.000342 10.606501 10.734087 10.838723 10.925391 -0.000259 -0.000262 -0.000264 -0.000265 7.997815 8.091980 8.169153 8.233066 -0.000200 -0.000202 -0.000204 -0.000205 6.043727 6.113355 6.170337 6.217535 -0.000155 -0.000156 -0.000157 -0.000158 4.574757 4.626204 4.668132 4.702899 -0.000119 -0.000120 -0.000121 -0.000122 3.466261 3.503955 3.534244 3.559455 -0.000091 -0.000092 -0.000093 -0.000093 2.626487 2.653222 2.673563 2.690655 -0.000069 -0.000070 -0.000071 -0.000071 1.988287 2.005256 2.014947 2.022939 -0.000052 -0.000053 -0.000054 -0.000054 1.503636 1.510659 1.505083 1.495715 -0.000039 -0.000040 -0.000040 -0.000041 1.139876 1.136986 1.110763 1.044690 -0.000027 -0.000029 -0.000030 -0.000031 0.875759 0.865885 0.824894 0.727959 0.544108 0.374759 0.274128 0.205825 0.156574 0.119926 0.092192 0.071009 0.054745 0.042222 0.032563 0.025107 0.019349 0.014902 0.011468 0.008818 0.006773 0.005197 0.003983 0.003049 0.002331 0.001780 0.001357 0.001033 0.000785 0.000596 0.000452 0.000342 0.000258 0.000195 0.000147 0.000110 0.000083 0.000062 0.000046 0.000035 0.000026 0.000019 0.000014 0.000010 0.000007 0.000005 0.000003 0.000001 0.000000 -0.000001 -0.000003 -0.000005 -0.000008 -0.000013 -0.000018 -0.000021 -0.000023 -0.000023 0.696410 0.684279 0.643877 0.568156 0.460906 0.354604 0.269516 0.205718 0.157714 0.121266 0.093405 0.072016 0.055550 0.042855 0.033056 0.025489 0.019645 0.015131 0.011646 0.008955 0.006880 0.005279 0.004047 0.003098 0.002369 0.001809 0.001380 0.001051 0.000799 0.000606 0.000460 0.000348 0.000263 0.000198 0.000149 0.000112 0.000084 0.000063 0.000047 0.000035 0.000026 0.000019 0.000014 0.000010 0.000007 0.000005 0.000003 0.000002 0.000000 -0.000001 -0.000003 -0.000005 -0.000008 -0.000011 -0.000014 -0.000016 -0.000018 -0.000018 0.590079 0.578484 0.543673 0.485534 0.410485 0.332027 0.261747 0.203887 0.158006 0.122180 0.094387 0.072884 0.056265 0.043424 0.033503 0.025837 0.019915 0.015341 0.011808 0.009081 0.006977 0.005354 0.004105 0.003143 0.002404 0.001836 0.001400 0.001066 0.000811 0.000616 0.000467 0.000353 0.000267 0.000202 0.000152 0.000114 0.000086 0.000064 0.000048 0.000036 0.000027 0.000020 0.000015 0.000011 0.000007 0.000005 0.000003 0.000002 0.000000 -0.000001 -0.000003 -0.000005 -0.000007 -0.000009 -0.000012 -0.000014 -0.000015 -0.000015 0.546215 0.536097 0.504661 0.454035 0.390171 0.322186 0.258471 0.203674 0.158898 0.123317 0.095448 0.073776 0.056983 0.043990 0.033944 0.026180 0.020181 0.015546 0.011967 0.009204 0.007072 0.005428 0.004162 0.003187 0.002438 0.001862 0.001420 0.001082 0.000823 0.000625 0.000474 0.000359 0.000271 0.000205 0.000154 0.000116 0.000087 0.000065 0.000049 0.000036 0.000027 0.000020 0.000015 0.000011 0.000008 0.000005 0.000003 0.000002 0.000000 -0.000001 -0.000003 -0.000005 -0.000007 -0.000009 -0.000011 -0.000012 -0.000014 -0.000014
</DataArray>
<DataArray type="Float64" Name="Velocity" NumberOfComponents="3" format="ascii">