<VTKFile type="PolyData">
<PolyData>
<Piece NumberOfPoints="2064" NumberOfVerts="2064" NumberOfLines="0" NumberOfStrips="0" NumberOfPolys="0">
<PointData>
<DataArray type="Float64" Name="Pressure" format="ascii">
 14502.544726 14500.292406 14485.908123 14448.678918 14381.476414 14291.716979 14195.459475 14092.854883 13965.462377 13800.679839 13598.143190 13369.983924 13133.027262 12897.523965 12666.497209 12439.029861 12212.575337 11984.887215 11754.922988 11522.593537 11288.239777 11052.309810 10815.223260 10577.328071 10338.896544 10100.137261 9861.212332 9622.254940 9383.384751 9144.720113 8906.386757 8668.523191 8431.283243 8194.836319 7959.365991 7725.067480 7492.144508 7260.805919 7031.262361 6803.723223 6578.393976 6355.473998 6135.154993 5917.620195 5703.044827 5491.598961 5283.455614 5078.810726 4877.930587 4681.261713 4489.676098 4304.975806 4130.737134 3973.094655 3840.122271 3739.061312 3673.911507 3644.534813 14521.072966 14522.749985 14516.737079 14486.142276 14411.925180 14303.940784 14203.484319 14113.773456 13992.416344 13826.385624 13612.986124 13369.407032 13124.553615 12887.170571 12657.266561 12432.615454 12208.840076 11982.781994 11753.631641 11521.712572 11287.589802 11051.804404 10814.815129 10576.988131 10338.605786 10099.883376 9860.988016 9622.056762 9383.212205 9144.574761 8906.271472 8668.441511 8431.238852 8194.832663 7959.406020 7725.153486 7492.278060 7260.987854 7031.492819 6804.001700 6578.719359 6355.844546 6135.568158 5918.072070 5703.528711 5492.101870 5283.949920 5079.234485 4878.142038 4680.937892 4488.105959 4300.729452 4121.544961 3956.956620 3817.718669 3713.540629 3647.731756 3618.463049 14550.016020 14561.283119 14577.642297 14573.974406 14484.763933 14308.699112 14194.119374 14167.626707 14046.639578 13890.609043 13649.835181 13358.450343 13101.274943 12863.242613 12636.469164 12420.069690 12203.180717 11980.188086 11752.202208 11520.813032 11286.961791 11051.332375 10814.441589 10576.680991 10338.345497 10099.657695 9860.789648 9621.882052 9383.060196 9144.446418 8906.169004 8668.367800 8431.196989 8194.825603 7959.436333 7725.223211 7492.388627 7261.140067 7031.686872 6804.237200 6578.995330 6356.159334 6135.919106 5918.454641 5703.934292 5492.512461 5284.325441 5079.482535 4878.046017 4679.986600 4485.093592 4292.857501 4102.798486 3919.942589 3763.377309 3653.597281 3588.429080 3560.361919 14575.766056 14599.011264 14649.655415 14704.322067 14578.292010 14238.146887 14144.044268 14267.383415 14098.816569 14025.863070 13725.345031 13287.007230 13073.924873 12828.695663 12602.305363 12407.911013 12200.100816 11978.260793 11751.016551 11520.016149 11286.382455 11050.886921 10814.085336 10576.387219 10338.096901 10099.442866 9860.601442 9621.716615 9382.916206 9144.324408 8906.070752 8668.295800 8431.154013 8194.814360 7959.459231 7725.282200 7492.485115 7261.274897 7031.860325 6804.449026 6579.244760 6356.445035 6136.238989 5918.805283 5704.309497 5492.899714 5284.697376 5079.776319 4878.112899 4679.464332 4483.061099 4286.771777 4084.509830 3856.222860 3660.674185 3552.860290 3495.246657 3471.059066 14580.144271 14608.281626 14677.301989 14763.766229 10405.264684 14190.224831 8600.798249 11584.304942 10301.120759 12898.032081 8821.664436 11549.859513 10405.690989 8972.473825 9689.015861 10664.481420 12367.007323 9684.105900 10781.192503 8672.664227 10695.449707 9523.615245 12451.347823 8795.332133 10370.576132 10731.972798 9706.037265 9834.810850 9308.817332 9054.285088 13231.103757 8492.965396 9373.256134 13031.794867 12421.744907 10447.527329 9102.235370 10234.256865 10956.765247 9189.399652 9079.413377 11222.640227 9024.521066 11475.219578 3475.925954 3411.298812 3372.837598 3355.625686 14550.878458 14568.680952 14614.064595 14701.744350 10060.708831 9811.905629 8881.325264 8795.070860 9341.950646 9381.925348 9242.712028 11917.855815 14251.111854 8731.904673 10472.174753 14145.712989 10260.983517 11311.526362 8631.909638 9508.336009 12501.328494 9587.609323 13168.711127 12757.315293 9132.390684 8768.002681 7870.286197 9366.161523 9634.149219 9531.607729 8070.426088 9928.582243 9871.719496 10696.014771 9291.787706 14350.974982 9595.659058 14076.196873 10656.937205 9936.945836 9499.917753 9445.434867 9590.119676 10160.359002 3270.037081 3251.483699 3232.151004 3222.313034 14490.531769 14487.242204 14462.960165 14425.231243 12681.196905 8971.185264 8467.682249 8783.812050 8936.127253 8851.701785 13211.881924 8977.757975 9218.772492 9325.127165 8147.739015 8780.321795 8746.647402 12084.784502 8942.848524 11815.096362 8781.709915 8756.019257 9783.698469 8876.446515 9765.360231 11415.783243 9895.867722 13297.972285 8693.999652 9598.562286 9226.413701 7124.802635 12163.811089 13878.375642 9443.138319 9900.133633 8436.995646 9859.795074 11735.183894 10049.690291 12811.994304 9074.044687 9959.271090 9659.830360 3098.946596 3092.725053 3084.540804 3079.835121 14414.001384 14402.868340 14348.817725 14239.231890 7573.912618 9041.090786 8813.099530 10343.800429 9463.529674 8160.190702 9577.199777 9690.266802 8490.967430 12388.202871 9353.508130 12613.893243 8169.282912 9413.734105 8551.209879 12867.600714 12755.132690 8676.024809 8709.988366 13352.975628 8596.839415 8288.575309 10757.172262 8750.235611 14427.702584 8522.329578 8866.927969 12129.218319 9499.686968 14199.662926 9106.838790 9901.240417 13993.647289 9847.184530 14009.245558 12393.395694 10463.133968 9209.463829 13731.987475 9073.098737 2941.899002 2939.783409 2936.546708 2934.590380 14328.621287 14333.927649 14323.870864 14200.975533 7026.835926 8422.920612 9813.099123 8366.075606 10136.875203 9871.163579 11261.281447 8589.645416 4451.591963 8964.202997 7956.101015 10347.411503 8768.178927 6989.884131 8698.797572 14590.053016 11018.957817 8150.704721 8102.636390 9736.294298 9593.342702 8392.405593 8838.099021 12577.767557 8464.943158 9249.247895 11561.691311 8774.658156 8293.070957 8592.530993 9728.249215 9192.010191 12134.204709 13375.464679 10343.925673 9403.808750 8902.460509 2416.438764 9259.671538 10911.098771 2792.584920 2792.006006 2790.865826 2790.191538 14221.725912 14254.244089 14330.467133 14375.803216 7912.427220 10034.597538 8985.999535 11210.034126 9304.722335 9603.940940 8789.614187 7035.876028 11658.548427 9071.969959 6759.839039 9541.096287 8742.418497 8404.243505 8136.173210 7970.762943 7177.460475 12652.390443 8898.625566 13397.304981 7892.868575 10511.786501 11168.200104 9868.621691 9176.866450 9282.792196 8540.098758 8496.617090 8596.489852 12521.917293 13522.142088 12699.619245 8741.732302 10395.219668 10452.787013 10048.772077 8655.730457 7509.414644 9309.751997 9676.269470 2648.713221 2648.743751 2648.481583 2648.369362 14071.689830 14121.425454 14236.446809 14360.729588 8937.130938 7134.917957 8817.540429 9222.190135 8842.202942 9067.515845 7963.749451 8612.671271 6536.359496 9209.921423 9016.097151 9546.615529 6526.611575 6705.593423 8989.244190 9053.844719 9625.356737 5811.289609 9433.638547 7191.670805 9651.750172 9215.241183 4327.708614 10000.454775 8824.811082 10837.210993 8377.004353 12992.044242 8884.651668 9225.770486 12630.771689 12535.571939 7434.400240 8873.551720 8510.827133 8363.184864 12845.576665 10229.673251 12512.591109 12034.623544 2509.366032 2509.643660 2509.747234 2509.873976 13865.957349 13918.369653 14048.412261 14250.941038 8437.168342 8764.537775 11273.132627 9132.495707 10822.841014 13636.723904 7564.160774 9762.195522 9297.976889 7254.557509 8777.208986 16412.244100 7210.801536 8266.775427 8592.120239 8785.065382 7690.135860 10385.362950 9589.838641 8933.950151 7863.935145 5582.049611 19342.079084 8796.898788 7225.783411 11558.988566 10113.818626 12325.749768 9575.986215 10989.117433 9376.037491 9609.787807 9014.056259 9772.507784 11300.109752 8306.423913 8500.673532 9359.138929 11858.302714 10186.667546 2374.143291 2374.520742 2374.775286 2375.001333 13609.285114 13642.349018 13711.424893 13805.384035 8676.120973 9466.992811 9124.367541 11106.743042 11284.562281 31132.155006 5149.077881 10854.429707 12759.793734 7787.846717 15617.342073 10352.075601 7451.947622 9701.805439 9432.678133 8424.116090 9633.088925 9775.857816 7231.504253 7819.416845 8975.151612 9206.122249 8181.299449 10197.801565 8599.313791 12489.077091 10423.828769 8659.414558 8141.710873 8025.443814 13181.533853 9130.113261 8952.418823 9069.089015 14320.333015 11183.926976 8766.409835 8817.588376 8928.641149 10791.141731 2242.848865 2243.264992 2243.580341 2243.846198 13327.819989 13340.020517 13340.697842 13263.964840 10006.960086 9407.675092 8938.942171 8171.111177 10549.383035 8344.183130 8681.452490 8739.233575 12902.752640 8770.455484 8911.317326 10438.151135 10007.413884 16734.242237 8781.894285 8493.396393 9368.104073 7505.222479 9347.807107 9701.813678 10274.688392 14093.462362 6942.032463 8395.591446 9371.295169 9011.311093 8638.997359 8815.428986 8957.085891 8397.882832 8774.884863 8295.876731 9636.216049 8184.211379 8976.575098 14105.730495 8777.524988 10329.720746 9777.985892 9112.542553 2115.367274 2115.796267 2116.134397 2116.414765 13047.507566 13055.848589 13073.176980 13062.727094 9142.737204 11314.786801 3855.944665 8776.721373 7001.358278 7354.170825 7646.630698 8483.742524 9837.020171 7960.558764 8663.800647 8768.623638 9060.095601 10142.826748 9730.097313 9121.025081 10016.714767 8979.166697 9127.878527 8951.051631 8793.807620 13037.328840 8796.723773 8358.871320 7968.669446 10676.772018 8840.731804 8070.841993 7750.721671 9063.870300 9301.717657 10246.760526 9331.651641 8912.947698 7996.139275 9045.779440 8329.056924 9952.375904 8739.477254 11231.321139 1991.613835 1992.044564 1992.389277 1992.673305 12775.852853 12778.328957 12791.061416 12797.020993 8997.788592 19038.419755 8078.164757 9150.942187 14013.528490 12243.083549 9508.333976 8015.112132 6655.561166 8606.481169 14385.053223 10200.209867 10062.165649 8632.073995 9318.622675 8895.155539 10558.568444 8096.100359 8837.533986 14621.828886 8115.212120 13967.939510 10592.256727 11565.558424 9911.408977 10573.703982 9977.630071 8571.907583 9533.311078 8477.442108 8097.128810 9470.102166 7113.576168 8444.136576 9010.544426 6254.700641 6711.290319 9260.740462 4929.857262 8879.900371 1871.514355 1871.941836 1872.286089 1872.569012 12514.999793 12505.007379 12487.460423 12491.155355 8821.165764 9485.499412 7699.108462 7429.530480 10111.787233 7749.073432 24703.985350 9581.720004 12327.592110 8132.678622 6935.470097 9182.816685 8094.515521 8616.871774 9134.500992 7515.228849 9058.009714 6228.830470 8674.089463 8452.247031 9051.778970 8706.243220 7800.741474 9311.685131 8325.865744 9939.880552 9272.100161 9727.611986 9112.407327 5142.867480 10504.346604 8403.908279 8316.810695 8290.971009 7535.300958 7180.839070 9600.089498 9316.911718 8604.423185 8398.441887 1754.996952 1755.418800 1755.759406 1756.039031 12269.490128 12241.369769 12187.442936 12170.161717 13238.623479 4065.920285 8130.486095 8139.635295 9155.261502 8905.291250 9484.332054 7291.309516 9656.673568 16607.244877 8256.846321 6857.956900 8541.442804 6310.237721 10251.681213 6361.205938 8727.723651 9873.483219 8538.875901 16417.660839 18356.670240 10185.076458 10496.145761 8622.475745 8370.098891 5779.434864 9606.528925 9522.143957 10595.966445 10204.032623 8419.632170 8492.296938 8644.835453 10897.860818 9707.153216 26257.266306 9381.515131 8937.152780 9252.704188 9137.884415 1641.988901 1642.403853 1642.739260 1643.014491 12046.786386 11998.245106 11854.627688 11565.603106 8662.013131 8921.464091 6101.329295 4607.347628 9354.585346 9375.520304 9484.202886 9520.621802 8329.170917 14393.545525 8612.104535 8350.760960 8678.518801 10361.630502 11521.167522 8005.010324 8330.541030 8392.987974 6336.352552 13632.831141 8646.502102 8373.554125 8103.964891 9324.959528 9439.865266 12287.422811 8343.868204 9715.562005 9327.213385 7891.104537 8166.265059 6840.209544 7499.127930 4124.336891 6099.283634 8807.804991 8928.027619 7689.814076 8192.283066 9283.343617 1532.415564 1532.822853 1533.152220 1533.422442 11853.623183 11808.272218 11708.630995 11554.106475 11171.863443 9070.150703 8857.416571 10300.040466 7468.198020 14248.489579 12819.322713 7015.206310 8710.161139 8781.404536 8329.372851 8613.867475 9477.846277 7556.739263 8031.146073 9969.275020 8608.767650 14189.327271 10872.436346 10074.225915 16514.824856 9647.916414 3802.652323 12103.381947 8889.248568 9371.520508 9506.356565 9160.167217 9020.061587 4153.435513 8445.737162 11566.540808 12767.262857 8759.510231 8938.634906 8739.953776 8514.928142 11696.742028 9832.273678 9064.091139 1426.200167 1426.599265 1426.922074 1427.186892 11680.973599 11639.065176 11530.008265 11301.944800 8306.337670 8825.102611 9213.378434 9543.425773 4817.603060 8166.302603 9590.119151 8737.315266 12071.237749 14159.159594 12116.227603 6994.173975 9024.163636 7421.436072 7765.872393 7643.206432 13182.964960 11369.019575 8570.150295 14344.600827 10055.197347 9860.831821 7987.703835 8555.105895 10535.165839 8962.272810 7970.279528 8694.120892 11551.073221 8169.844961 12907.189171 9303.067606 7752.447964 9326.983679 5035.862095 8641.534634 9650.202801 8103.473842 10421.966725 7499.542418 1323.263931 1323.654440 1323.970329 1324.229460 11519.681781 11488.097771 11445.754825 11393.457169 4574.600284 8373.602895 5263.227719 8971.843840 10122.585003 13196.616567 19876.443769 9412.279472 10184.450660 7721.384231 9056.437446 8726.340607 7711.800373 8655.764712 9467.057180 9308.371854 8646.025253 9148.977792 10379.865414 5436.969301 13017.873892 9041.011107 12665.208856 8848.991917 8866.594255 8988.580014 10531.840317 9578.047332 14116.280380 9558.011151 9314.920904 10006.272459 19308.758478 9892.980097 12529.134521 8938.298585 8376.967041 8873.401327 14241.099833 11079.767958 1223.526336 1223.907937 1224.216632 1224.469858 11362.032866 11318.723140 11225.584255 11117.907251 10274.261060 7385.031001 9395.930650 2704.971465 6604.478807 9263.868323 18272.906196 10587.623420 5795.465181 -2459.868039 10225.724236 11850.339717 10314.753826 6570.818483 8320.173641 6431.131847 8999.593485 8691.618008 9278.167219 11938.391390 10193.065434 1500.045980 8963.926508 9587.934153 10604.928598 8261.674335 9537.874101 8066.851638 9385.769021 13099.980015 9458.737294 7428.239408 13905.118749 8722.214263 6950.868709 8015.995956 8965.803572 8835.538513 13287.985671 9007.433918 1126.905420 1127.277853 1127.579139 1127.826284 11218.382345 11164.861531 11002.969468 10630.305325 10230.244107 13932.349496 8972.047514 7167.514889 7813.139243 9088.039433 9069.996615 9515.670810 10819.108996 11136.297630 9265.676742 8780.689578 13449.604443 9101.522042 8478.879473 9462.449825 13802.124275 12354.670566 12809.472741 8049.546704 9110.728376 16489.397460 9534.939671 5448.877724 10233.770030 8615.596374 14472.046054 13413.844381 12583.862204 8678.136645 9254.321228 8032.853915 10773.273211 14528.718866 10502.324175 9640.225875 7145.031480 9009.803240 8693.792252 8573.737920 1033.318086 1033.681142 1033.974845 1034.215768 11097.300476 11062.747540 10998.953642 10816.202088 942.680402 943.033913 943.319896 943.554486 10983.201196 10960.610404 10917.910815 10867.076567 854.907876 855.251714 855.529872 855.758043 10860.913191 10841.926181 10811.057877 10764.697130 769.915717 770.249787 770.520045 770.741733 10724.114924 10697.284416 10628.097502 10518.871976 687.619067 687.943308 688.205615 688.420781 10576.988503 10549.546478 10478.244566 10351.951728 607.933223 608.247602 608.501932 608.710553 10421.054315 10397.551381 10361.589475 10332.285439 530.773825 531.078336 531.324683 531.526756 10257.592069 10221.231814 10141.469225 10039.378797 456.057032 456.351694 456.590074 456.785611 10101.774631 10057.202207 9924.548567 9645.313647 383.699680 383.984532 384.214976 384.404002 9964.663592 9934.418621 9913.106106 9956.429416 313.619408 313.894508 314.117063 314.299617 9842.513513 9795.235171 9689.475514 9592.821502 245.734779 246.000201 246.214928 246.391060 9750.707187 9693.734089 9534.275715 9261.181097 179.965375 180.221209 180.428178 180.597946 9697.298179 9660.609309 9584.684064 9475.407906 116.231877 116.478222 116.677515 116.840984 9662.860079 9648.685705 9617.294935 9586.545081 54.456125 54.693091 54.884796 55.042040 9621.298315 9629.812089 9661.484716 9695.740067 -5.438833 -5.211130 -5.026920 -4.875824 9550.623878 9567.118059 9648.708573 9946.714183 -63.528718 -63.310156 -63.133342 -62.988315 9450.777436 9440.186643 9417.455105 9413.859407 -119.887998 -119.678454 -119.508936 -119.369895 9354.552169 9315.816286 9200.713718 8920.225841 -174.589900 -174.389249 -174.226926 -174.093788 9292.692494 9258.937067 9146.967577 8992.203623 -227.706419 -227.514536 -227.359309 -227.231993 9264.277274 9265.374841 9287.793047 9286.851613 -279.308355 -279.125121 -278.976892 -278.855319 9239.320239 9260.181398 9313.319180 9355.870474 -329.465358 -329.290658 -329.149335 -329.033429 9199.610159 9220.952339 9365.490038 9859.478073 -378.245992 -378.079720 -377.945216 -377.834906 9152.259895 9120.764099 8959.955432 8696.170397 -425.717814 -425.559871 -425.432108 -425.327330 9134.273247 9118.530436 9073.373371 8970.111894 -471.947462 -471.797762 -471.676672 -471.577369 9133.998725 9140.132656 9164.295941 9146.258801 -517.000770 -516.859242 -516.744766 -516.650891 9126.890030 9136.947190 9166.203456 9152.032594 -560.942888 -560.809476 -560.701569 -560.613087 9107.415341 9116.688914 9137.506072 9198.912863 -603.838429 -603.713095 -603.611729 -603.528615 9078.102425 9084.917372 9094.311551 9060.520938 -645.751626 -645.634356 -645.539517 -645.461762 9044.661766 9053.902902 9057.863933 9053.189119 -686.746515 -686.637316 -686.549012 -686.476622 9009.015476 9030.755630 9085.586800 8967.562689 -726.887133 -726.786040 -726.704299 -726.637298 8963.660311 8988.152443 9072.525646 9199.015533 -766.237741 -766.144818 -766.069693 -766.008124 8909.279163 8927.418912 8970.856112 9055.138944 -804.863067 -804.778411 -804.709982 -804.653911 8854.630230 8867.343222 8920.044680 9045.786841 -842.828580 -842.752326 -842.690701 -842.640219 8810.107414 8816.129880 8805.113577 8831.305483 -880.200789 -880.133110 -880.078431 -880.033655 8779.364545 8810.137562 8885.839041 8976.965814 -917.047568 -916.988684 -916.941129 -916.902206 8738.457553 8787.772557 8939.829437 9184.971308 -953.438522 -953.388701 -953.348490 -953.315599 8668.873989 8709.287070 8812.932510 9040.810632 -989.445386 -989.404951 -989.372345 -989.345703 8579.911790 8605.023716 8671.329465 8797.810990 -1025.142460 -1025.111794 -1025.087104 -1025.066968 8491.442402 8509.585176 8531.475211 8583.076223 -1060.607097 -1060.586649 -1060.570240 -1060.556909 8414.755699 8447.418421 8548.220680 8712.112883 -1095.920231 -1095.910524 -1095.902818 -1095.896643 8345.674105 8381.752444 8464.786632 8621.691855 -1131.166968 -1131.168604 -1131.170090 -1131.171471 8287.228836 8320.277548 8413.427952 8633.145886 -1166.437233 -1166.450900 -1166.462135 -1166.471533 8251.097017 8268.909923 8267.876045 8214.195636 -1201.826488 -1201.852969 -1201.874582 -1201.892516 8255.145114 8280.925733 8349.248667 8573.880048 -1237.436530 -1237.476705 -1237.509393 -1237.536443 8297.917329 8341.019582 8326.481982 8091.119388 -1273.376389 -1273.431225 -1273.475735 -1273.512529 8355.675051 8468.402291 8795.679041 9237.667918 -1309.763343 -1309.833866 -1309.890936 -1309.938114 8377.865972 8481.078930 8717.306763 9187.803061 -1346.724118 -1346.811314 -1346.881517 -1346.939627 8374.478297 8458.824788 8586.280352 8658.578636 -1384.396365 -1384.500930 -1384.584287 -1384.653531 8370.022506 8457.828712 8672.635900 8982.461805 -1422.930675 -1423.052389 -1423.147412 -1423.227007 8374.262290 8446.016606 8538.958885 8451.138104 -1462.493691 -1462.629887 -1462.731256 -1462.817892 8398.819506 8504.123212 8742.136408 9098.810365 -1503.273670 -1503.415503 -1503.508451 -1503.592554 8419.745213 8546.247411 8869.387721 9467.302904 -1545.491698 -1545.615095 -1545.661866 -1545.718628 8420.638833 8533.697480 8758.103298 9044.095592 -1589.426306 -1589.469958 -1589.377176 -1589.345113 8409.669460 8513.070839 8750.142020 9078.518359 -1635.470408 -1635.281666 -1634.821781 -1634.552134 8398.797560 8488.202903 8645.045072 8886.915673 -1684.267686 -1683.466534 -1682.088988 -1681.229290 8401.910902 8510.863614 8747.340315 9143.363522 -1737.050957 -1734.671138 -1731.050306 -1728.792152 8411.916021 8534.816740 8830.552229 9289.490401 -1796.537239 -1789.973950 -1780.950663 -1775.561948 8421.506157 8544.342311 8755.288342 8908.631363 -1869.402016 -1850.974760 -1829.235442 -1817.592982 8430.174929 8571.524540 8965.427173 9614.062867 -1976.698455 -1916.185317 -1868.467183 -1847.228623 8429.182352 8529.804772 8642.517015 8621.447289 -2116.969158 -1958.565490 -1881.736802 -1853.904532 8442.429617 8570.055500 8887.202775 9344.723079 -2090.477796 -1923.110491 -1855.776407 -1830.571219 8452.590261 8570.073914 8819.279381 9136.161044 -1886.989454 -1831.960525 -1796.395339 -1779.597729 8460.891457 8572.357260 8800.089435 9053.283300 -1748.911364 -1735.212230 -1718.847658 -1709.927011 8471.164356 8577.932821 8847.527172 9357.626131 -1646.523957 -1641.561656 -1634.708978 -1630.592522 8489.164099 8582.762807 8694.667389 8729.225715 -1553.808169 -1551.993295 -1549.222288 -1547.493280 8511.674025 8659.277584 9016.722534 9514.158873 -1465.960100 -1465.353623 -1464.297908 -1463.641678 8485.213139 8643.549489 9064.325038 9840.114912 -1381.027908 -1380.900235 -1380.556646 -1380.359204 8387.963791 8488.475502 8668.286774 8777.066135 -1298.152540 -1298.213157 -1298.160956 -1298.152871 8258.372358 8297.990239 8406.568784 8685.508627 -1216.912938 -1217.043904 -1217.107576 -1217.174227 8155.797465 8127.459549 7940.100274 7734.253738 -1137.075343 -1137.228952 -1137.336053 -1137.429809 8139.609141 8143.965496 8118.309456 8170.569199 -1058.490690 -1058.648490 -1058.770223 -1058.872186 8191.792699 8251.632858 8397.645789 8652.034279 -981.050668 -981.207086 -981.334083 -981.438207 8265.087008 8354.479452 8578.461824 8912.902756 -904.667198 -904.823887 -904.957770 -905.065281 8335.696969 8416.852719 8593.795434 8849.072715 -829.260079 -829.426325 -829.580267 -829.700017 8416.992706 8486.855790 8606.890408 8786.994681 -754.744172 -754.943770 -755.152525 -755.307502 8524.710291 8619.092948 8806.034300 9257.258673 -681.006867 -681.297519 -681.645033 -681.889834 8640.924058 8783.655261 9097.848685 9685.537608 -607.857623 -608.381283 -609.068024 -609.528971 8725.463260 8904.793600 9330.783810 10015.747764 -534.903154 -536.023364 -537.525960 -538.483999 8751.122226 8934.766264 9363.666286 10170.798771 -461.210273 -463.936424 -467.368843 -469.394169 8724.649262 8892.673697 9243.503363 9865.168007 -384.260734 -391.840219 -399.615610 -403.624209 8673.063254 8837.083407 9163.605586 9602.962643 -295.886904 -321.632017 -336.776506 -343.598634 8612.661204 8787.006030 9179.187688 9781.987314 10285.031744 11548.454177 13830.915231 14843.466578 15050.725347 16042.351619 14024.669206 12349.656344 11947.492612 8254.341879 6168.409407 5174.108253 4516.606875 4049.320717 3698.508471 3422.518947 3195.433577 3000.282659 2825.807106 2664.675552 2512.343883 2366.233541 2225.101125 2088.549261 1956.656126 1829.708087 1708.020012 1591.826738 1481.228897 1376.177469 1276.483495 1181.842080 1091.862549 1006.099149 924.078828 845.324259 769.371472 695.782239 624.151806 554.112693 485.335264 417.525377 350.418640 283.768988 217.325073 150.777292 83.629190 14.854229 -58.158050 -143.712381 -219.087038 -260.897263 -283.176628 -292.584108 8547.003674 8713.729350 9074.021869 9687.604297 10282.230078 10905.753130 11803.675334 12337.516533 12430.449169 12081.031883 11053.974461 10017.129527 8832.791146 7283.616433 6054.274856 5163.075587 4529.558372 4064.879751 3711.458898 3432.098434 3202.098884 3004.739827 2828.720988 2666.590829 2513.673719 2367.270758 2226.037174 2089.495419 1957.664178 1830.788876 1709.158954 1592.995927 1482.395909 1377.311207 1277.557628 1182.836640 1092.764237 1006.900819 924.778524 845.924075 769.876432 696.199322 624.489202 554.379398 485.541205 417.682522 350.544251 283.893840 217.513809 151.180072 84.621544 17.467151 -50.634040 -117.834712 -176.527649 -218.067830 -242.837344 -253.587361 8492.858520 8639.128327 8923.636627 9327.016923 9795.937063 10281.191119 10749.422823 11026.905729 10990.522225 10590.264572 9864.306571 8944.109350 7914.902539 6851.912683 5895.415943 5123.242421 4528.893797 4074.462030 3721.740482 3440.441346 3208.177487 3008.919896 2831.505036 2668.437925 2514.949373 2368.242089 2226.883975 2090.326461 1958.534376 1831.715215 1710.134093 1593.999032 1483.400678 1378.291353 1278.490227 1183.703822 1093.553691 1007.605514 925.395985 846.455460 770.325601 696.572019 624.792467 554.621353 485.731515 417.834243 350.678761 284.052943 217.788783 151.780824 86.039513 20.842735 -42.837469 -102.502978 -153.788340 -192.575280 -217.261115 -228.346888 8474.149643 8612.054688 8864.156623 9212.534379 9616.448425 10028.421815 10373.419450 10543.428959 10448.127537 10053.321616 9393.827362 8554.848666 7624.545758 6688.348733 5833.119246 5113.525088 4538.325350 4087.720797 3733.496617 3449.453283 3214.611129 3013.318384 2834.433938 2670.378091 2516.274678 2369.225030 2227.710103 2091.111225 1959.339823 1832.565240 1711.027492 1594.920004 1484.326728 1379.198813 1279.357748 1184.514267 1094.294841 1008.269989 925.980678 846.960747 770.754495 696.929398 625.084471 554.855067 485.915137 417.978209 350.798923 284.178416 217.980332 152.172125 86.921923 22.802938 -38.857500 -95.637987 -144.236855 -181.581734 -205.863977 -216.937856
</DataArray>
<DataArray type="Float64" Name="Velocity" NumberOfComponents="3" format="ascii">