<VTKFile type="PolyData">
<PolyData>
<Piece NumberOfPoints="2064" NumberOfVerts="2064" NumberOfLines="0" NumberOfStrips="0" NumberOfPolys="0">
<PointData>
<DataArray type="Float64" Name="Pressure" format="ascii">
 2.427509 4.736886 9.041576 13.397051 14.388382 11.382602 7.061352 3.663317 1.670335 0.693639 0.270472 0.103076 0.041391 0.019925 0.012802 0.010532 0.009833 0.009624 0.009563 0.009546 0.009541 0.009540 0.009539 0.009539 0.009539 0.009539 0.009539 0.009539 0.009539 0.009539 0.009539 0.009539 0.009539 0.009536 0.009516 0.009347 0.008094 0.000148 -0.041606 -0.219407 -0.816908 -2.332655 -4.997903 -7.692889 -8.222886 -6.249507 -3.649507 -1.774068 -0.762476 -0.300742 -0.111282 -0.039148 -0.013208 -0.004298 -0.001354 -0.000414 -0.000126 -0.000050 6.323556 12.689083 25.738931 39.547392 41.293207 29.958458 16.894201 8.141730 3.533609 1.427792 0.554780 0.218907 0.097254 0.055354 0.041529 0.037134 0.035781 0.035376 0.035258 0.035225 0.035215 0.035213 0.035212 0.035212 0.035212 0.035212 0.035212 0.035212 0.035212 0.035212 0.035212 0.035212 0.035210 0.035201 0.035130 0.034641 0.031503 0.013736 -0.073128 -0.434046 -1.688135 -5.187263 -12.282036 -20.274433 -21.062960 -14.130320 -7.150297 -3.125906 -1.260396 -0.480872 -0.175285 -0.061409 -0.020761 -0.006784 -0.002141 -0.000654 -0.000199 -0.000080 16.413141 35.377272 80.128618 134.921014 137.280742 87.225912 43.776161 19.668513 8.230044 3.283057 1.297759 0.548072 0.279125 0.186831 0.156367 0.146651 0.143645 0.142741 0.142475 0.142399 0.142378 0.142372 0.142370 0.142370 0.142370 0.142370 0.142370 0.142370 0.142370 0.142370 0.142369 0.142369 0.142362 0.142325 0.142096 0.140765 0.133503 0.097227 -0.065843 -0.721218 -3.082723 -10.763475 -31.239571 -61.395212 -62.213208 -33.460067 -13.677582 -5.338109 -2.054213 -0.767613 -0.277915 -0.097538 -0.033180 -0.010847 -0.003363 -0.001004 -0.000301 -0.000120 34.842173 79.672753 203.272546 397.021977 388.102188 200.633587 92.442199 40.413873 16.775629 6.747673 2.748750 1.235455 0.688837 0.499410 0.436145 0.415704 0.409293 0.407335 0.406752 0.406582 0.406534 0.406520 0.406516 0.406515 0.406515 0.406515 0.406515 0.406515 0.406515 0.406515 0.406514 0.406510 0.406489 0.406368 0.405730 0.402529 0.387516 0.322611 0.066464 -0.856045 -3.960212 -14.320894 -50.553158 -146.714983 -146.372957 -48.022643 -18.021519 -7.356453 -2.884485 -1.095714 -0.404072 -0.144840 -0.050286 -0.015730 -0.004322 -0.001236 -0.000372 -0.000151 58.245061 135.014099 365.642196 767.708150 727.276726 325.550044 144.051906 64.102281 26.670678 10.670097 4.227837 1.754687 0.847299 0.527704 0.419164 0.383491 0.372111 0.368576 0.367505 0.367188 0.367096 0.367070 0.367062 0.367060 0.367060 0.367060 0.367059 0.367059 0.367059 0.367059 0.367058 0.367049 0.367004 0.366766 0.365595 0.360217 0.337361 0.248565 -0.063679 -1.048359 -3.783593 -10.126938 -21.239849 -35.552480 -0.002303 -0.000873 -0.000314 -0.000143 79.083250 177.613186 465.627292 965.680514 902.116969 397.350959 180.460463 81.811174 34.347343 13.740444 5.303356 2.006126 0.774741 0.333242 0.180591 0.129514 0.112925 0.107680 0.106063 0.105575 0.105431 0.105389 0.105377 0.105374 0.105373 0.105373 0.105373 0.105373 0.105373 0.105372 0.105370 0.105359 0.105297 0.104991 0.103576 0.097509 0.073668 -0.011191 -0.281667 -1.043030 -2.879428 -6.404815 -11.393817 -15.971468 -0.000643 -0.000409 -0.000189 -0.000102 93.279851 202.221035 509.649293 1029.412572 963.433347 438.811258 205.061657 94.345151 40.199316 16.303432 6.345848 2.386998 0.883135 0.334594 0.141617 0.075910 0.054192 0.047205 0.045011 0.044339 0.044136 0.044077 0.044059 0.044055 0.044053 0.044053 0.044053 0.044053 0.044053 0.044052 0.044050 0.044036 0.043971 0.043662 0.042321 0.036963 0.017521 -0.045784 -0.227951 -0.682206 -1.634301 -3.216712 -5.153223 -6.788441 -0.000198 -0.000155 -0.000091 -0.000059 101.403065 214.729018 529.428323 1055.923443 991.283044 460.712614 218.970846 102.031512 44.082823 18.122446 7.137676 2.704709 0.995096 0.361804 0.135479 0.057177 0.030872 0.022269 0.019524 0.018667 0.018405 0.018327 0.018304 0.018297 0.018295 0.018295 0.018295 0.018295 0.018294 0.018294 0.018291 0.018279 0.018219 0.017955 0.016879 0.012872 -0.000586 -0.040881 -0.146736 -0.385568 -0.833516 -1.491522 -2.196688 -2.766940 -0.000063 -0.000056 -0.000039 -0.000029 105.561795 220.648765 538.089542 1067.257747 1003.514422 470.917394 226.002382 106.273857 46.393135 19.276636 7.672402 2.934791 1.085311 0.391419 0.140126 0.051981 0.021946 0.011978 0.008750 0.007727 0.007410 0.007313 0.007284 0.007276 0.007274 0.007273 0.007273 0.007273 0.007272 0.007272 0.007270 0.007259 0.007212 0.007013 0.006255 0.003623 -0.004593 -0.027361 -0.082530 -0.197092 -0.394794 -0.662472 -0.927425 -1.133386 -0.000021 -0.000020 -0.000015 -0.000013 107.537315 223.320191 541.797433 1072.013008 1008.711122 475.470330 229.364395 108.450268 47.657498 19.947902 8.002287 3.085713 1.149241 0.415663 0.147226 0.052021 0.019198 0.008171 0.004553 0.003392 0.003027 0.002914 0.002880 0.002870 0.002867 0.002866 0.002866 0.002866 0.002865 0.002865 0.002863 0.002855 0.002821 0.002688 0.002207 0.000646 -0.003907 -0.015673 -0.042239 -0.093685 -0.176764 -0.282848 -0.383077 -0.459765 -0.000007 -0.000007 -0.000006 -0.000005 108.426734 224.482928 543.353025 1073.981597 1010.888126 477.448442 230.901239 109.502337 48.304505 20.311234 8.190863 3.176849 1.190284 0.432651 0.153317 0.053420 0.018667 0.006877 0.002968 0.001700 0.001296 0.001170 0.001132 0.001120 0.001116 0.001115 0.001115 0.001115 0.001115 0.001115 0.001113 0.001108 0.001086 0.001003 0.000724 -0.000129 -0.002466 -0.008142 -0.020201 -0.042236 -0.075981 -0.117195 -0.154932 -0.183763 -0.000002 -0.000002 -0.000002 -0.000002 108.811228 224.974394 543.993520 1074.784433 1011.784600 478.285493 231.577917 109.987768 48.618349 20.496623 8.292025 3.228250 1.214691 0.443429 0.157626 0.054819 0.018818 0.006515 0.002403 0.001057 0.000625 0.000489 0.000446 0.000433 0.000429 0.000428 0.000428 0.000428 0.000428 0.000428 0.000427 0.000423 0.000410 0.000363 0.000212 -0.000224 -0.001352 -0.003945 -0.009173 -0.018275 -0.031636 -0.047420 -0.061577 -0.072444 -0.000001 -0.000001 -0.000001 -0.000001 108.972191 225.177064 544.252676 1075.106904 1012.147368 478.631646 231.867042 110.203563 48.764072 20.586683 8.343467 3.255619 1.228320 0.449779 0.160360 0.055854 0.019094 0.006467 0.002222 0.000823 0.000371 0.000227 0.000182 0.000168 0.000164 0.000163 0.000162 0.000162 0.000162 0.000162 0.000162 0.000159 0.000152 0.000126 0.000050 -0.000161 -0.000679 -0.001813 -0.003998 -0.007650 -0.012833 -0.018802 -0.024087 -0.028178 -0.000000 -0.000000 -0.000000 -0.000000 109.037827 225.258879 544.355835 1075.234504 1012.291720 478.771836 231.987370 110.296467 48.829247 20.628631 8.368450 3.269486 1.235532 0.453300 0.161965 0.056521 0.019324 0.006503 0.002176 0.000744 0.000278 0.000129 0.000082 0.000067 0.000063 0.000061 0.000061 0.000061 0.000061 0.000061 0.000060 0.000059 0.000055 0.000042 0.000005 -0.000092 -0.000320 -0.000799 -0.001685 -0.003117 -0.005093 -0.007325 -0.009286 -0.010821 -0.000000 -0.000000 -0.000000 -0.000000 109.063998 225.291262 544.396154 1075.283877 1012.347489 478.826661 232.035551 110.334851 48.857171 20.647320 8.380040 3.276189 1.239166 0.455152 0.162851 0.056914 0.019479 0.006548 0.002172 0.000719 0.000245 0.000093 0.000044 0.000029 0.000025 0.000023 0.000023 0.000023 0.000023 0.000023 0.000022 0.000022 0.000020 0.000013 -0.000004 -0.000047 -0.000144 -0.000340 -0.000691 -0.001241 -0.001984 -0.002810 -0.003533 -0.004106 -0.000000 -0.000000 -0.000000 -0.000000 109.074126 225.303588 544.410812 1075.300223 1012.364169 478.842696 232.050307 110.347560 48.867237 20.654618 8.384898 3.279178 1.240877 0.456069 0.163312 0.057131 0.019572 0.006581 0.002178 0.000713 0.000234 0.000080 0.000031 0.000015 0.000010 0.000009 0.000008 0.000008 0.000008 0.000008 0.000008 0.000008 0.000007 0.000004 -0.000004 -0.000022 -0.000062 -0.000141 -0.000277 -0.000485 -0.000760 -0.001063 -0.001328 -0.001540 -0.000000 -0.000000 -0.000000 -0.000000 109.076991 225.306053 544.410441 1075.291633 1012.345340 478.822138 232.034990 110.339086 48.863980 20.654197 8.385544 3.279972 1.241489 0.456456 0.163529 0.057241 0.019623 0.006602 0.002185 0.000713 0.000231 0.000075 0.000026 0.000010 0.000005 0.000004 0.000003 0.000003 0.000003 0.000003 0.000003 0.000003 0.000002 0.000001 -0.000002 -0.000010 -0.000026 -0.000057 -0.000109 -0.000186 -0.000287 -0.000397 -0.000494 -0.000572 -0.000000 -0.000000 -0.000000 -0.000000 109.070051 225.291045 544.374416 1075.211822 1012.218791 478.694526 231.939445 110.281005 48.834252 20.641163 8.380656 3.278463 1.241166 0.456466 0.163592 0.057289 0.019650 0.006615 0.002190 0.000714 0.000230 0.000074 0.000024 0.000008 0.000003 0.000002 0.000001 0.000001 0.000001 0.000001 0.000001 0.000001 0.000001 0.000000 -0.000001 -0.000004 -0.000011 -0.000022 -0.000042 -0.000070 -0.000107 -0.000147 -0.000182 -0.000210 -0.000000 -0.000000 -0.000000 -0.000000 109.016134 225.188420 544.164155 1074.816441 1011.654997 478.162074 231.562455 110.062433 48.726292 20.594629 8.362918 3.272472 1.239405 0.456045 0.163533 0.057303 0.019668 0.006625 0.002194 0.000716 0.000230 0.000073 0.000023 0.000007 0.000003 0.000001 0.000001 0.000000 0.000000 0.000000 0.000000 0.000000 0.000000 0.000000 -0.000001 -0.000002 -0.000004 -0.000009 -0.000016 -0.000026 -0.000040 -0.000054 -0.000066 -0.000077 -0.000000 -0.000000 -0.000000 -0.000000 108.732063 224.657039 543.133075 1073.073055 1009.400588 476.179599 230.253829 109.352792 48.396254 20.459771 8.313876 3.256575 1.234883 0.454979 0.163370 0.057322 0.019699 0.006644 0.002203 0.000719 0.000232 0.000074 0.000023 0.000007 0.000002 0.000001 0.000000 0.000000 0.000000 0.000000 0.000000 0.000000 0.000000 -0.000000 -0.000000 -0.000001 -0.000002 -0.000003 -0.000006 -0.000010 -0.000014 -0.000019 -0.000024 -0.000028 -0.000000 -0.000000 -0.000000 -0.000000 107.550202 222.405054 538.772904 1066.113622 1001.095783 469.423424 226.140702 107.282586 47.493368 20.110305 8.192542 3.218837 1.224590 0.452689 0.163073 0.057393 0.019779 0.006688 0.002223 0.000727 0.000235 0.000075 0.000024 0.000007 0.000002 0.000001 0.000000 0.000000 0.000000 0.000000 0.000000 0.000000 0.000000 -0.000000 -0.000000 -0.000000 -0.000001 -0.000001 -0.000002 -0.000004 -0.000005 -0.000007 -0.000009 -0.000010 -0.000000 -0.000000 -0.000000 -0.000000 103.693208 214.668292 523.081709 1041.624876 974.855681 450.261926 215.469884 102.290680 45.443462 19.354468 7.940035 3.142865 1.204602 0.448513 0.162671 0.057614 0.019971 0.006789 0.002267 0.000745 0.000241 0.000077 0.000024 0.000008 0.000002 0.000001 0.000000 0.000000 0.000000 0.000000 0.000000 0.000000 0.000000 -0.000000 -0.000000 -0.000000 -0.000000 -0.000000 -0.000001 -0.000001 -0.000002 -0.000002 -0.000003 -0.000004 -0.000000 -0.000000 -0.000000 -0.000000 94.061055 193.676509 475.538045 967.016956 916.575294 416.606857 198.575580 95.294154 42.921112 18.557027 7.729445 3.105155 1.207209 0.455614 0.167375 0.059997 0.021032 0.007224 0.002436 0.000807 0.000263 0.000085 0.000027 0.000008 0.000003 0.000001 0.000000 0.000000 0.000000 0.000000 0.000000 0.000000 0.000000 -0.000000 -0.000000 -0.000000 -0.000000 -0.000000 -0.000000 -0.000000 -0.000001 -0.000001 -0.000001 -0.000001 -0.000000 -0.000000 -0.000000 -0.000000 76.327837 151.760416 363.398604 759.721937 832.188715 387.964331 194.549039 96.666475 44.851488 19.922366 8.508324 3.502383 1.394675 0.538907 0.202599 0.074282 0.026619 0.009341 0.003215 0.001087 0.000362 0.000119 0.000038 0.000012 0.000004 0.000001 0.000000 0.000000 0.000000 0.000000 0.000000 0.000000 0.000000 -0.000000 -0.000000 -0.000000 -0.000000 -0.000000 -0.000000 -0.000000 -0.000000 -0.000000 -0.000001 -0.000001 -0.000000 -0.000000 -0.000000 -0.000000 53.184773 96.683146 199.203222 374.121783 -0.000000 -0.000000 -0.000000 -0.000000 31.938254 52.099771 89.428401 128.955090 -0.000000 -0.000000 -0.000000 -0.000000 17.053799 25.443883 39.029022 50.775283 -0.000000 -0.000000 -0.000000 -0.000000 8.355821 11.663433 16.554304 20.624751 -0.000000 -0.000000 -0.000000 -0.000000 3.844051 5.118987 6.879849 8.335504 -0.000000 -0.000000 -0.000000 -0.000000 1.686792 2.174013 2.810368 3.340612 -0.000000 -0.000000 -0.000000 -0.000000 0.713544 0.899163 1.130244 1.325529 -0.000000 -0.000000 -0.000000 -0.000000 0.293124 0.363720 0.448022 0.520427 -0.000000 -0.000000 -0.000000 -0.000000 0.117549 0.144342 0.175212 0.202157 -0.000000 -0.000000 -0.000000 -0.000000 0.046194 0.056331 0.067663 0.077704 -0.000000 -0.000000 -0.000000 -0.000000 0.017841 0.021660 0.025824 0.029564 -0.000000 -0.000000 -0.000000 -0.000000 0.006787 0.008218 0.009748 0.011138 -0.000000 -0.000000 -0.000000 -0.000000 0.002548 0.003081 0.003642 0.004157 -0.000000 -0.000000 -0.000000 -0.000000 0.000945 0.001143 0.001348 0.001538 -0.000000 -0.000000 -0.000000 -0.000000 0.000347 0.000420 0.000494 0.000564 -0.000000 -0.000000 -0.000000 -0.000000 0.000126 0.000153 0.000180 0.000205 -0.000000 -0.000000 -0.000000 -0.000000 0.000045 0.000055 0.000065 0.000074 -0.000000 -0.000000 -0.000000 -0.000000 0.000016 0.000020 0.000023 0.000027 -0.000000 -0.000000 -0.000000 -0.000000 0.000006 0.000007 0.000008 0.000009 -0.000000 -0.000000 -0.000000 -0.000000 0.000002 0.000002 0.000003 0.000003 -0.000000 -0.000000 -0.000000 -0.000000 0.000001 0.000001 0.000001 0.000001 0.000000 0.000000 0.000000 0.000000 0.000000 0.000000 0.000000 0.000000 0.000000 0.000000 0.000000 0.000000 0.000000 0.000000 0.000000 0.000000 0.000000 0.000000 0.000000 0.000000 0.000000 0.000000 0.000000 0.000000 0.000000 0.000000 0.000000 0.000000 0.000000 0.000000 0.000000 0.000000 0.000000 0.000000 0.000000 0.000000 0.000000 0.000000 0.000000 0.000000 0.000000 0.000000 0.000000 0.000000 0.000000 0.000000 0.000000 0.000000 0.000000 0.000000 0.000000 0.000000 0.000000 0.000000 0.000000 0.000000 0.000000 0.000000 0.000000 0.000000 0.000000 0.000000 0.000000 0.000000 0.000000 0.000000 0.000000 0.000000 0.000000 0.000000 0.000000 0.000000 0.000000 0.000000 0.000000 0.000000 0.000000 0.000000 0.000000 0.000000 0.000000 0.000000 0.000000 0.000000 0.000000 0.000000 0.000000 0.000000 0.000000 0.000000 0.000000 0.000000 0.000000 0.000000 0.000000 0.000000 0.000000 0.000000 0.000000 0.000000 0.000000 0.000000 0.000000 0.000000 0.000000 0.000000 0.000000 0.000000 0.000000 0.000000 0.000000 0.000000 0.000000 0.000000 0.000000 0.000000 0.000000 0.000000 0.000000 0.000000 0.000000 0.000000 0.000000 0.000000 0.000000 0.000000 0.000000 0.000000 0.000000 0.000000 0.000000 0.000000 0.000000 0.000000 0.000000 0.000000 0.000000 0.000000 0.000000 0.000000 0.000000 0.000000 0.000000 0.000000 0.000000 0.000000 0.000000 0.000000 0.000000 0.000000 0.000000 0.000000 0.000000 0.000000 0.000000 0.000000 0.000000 0.000000 0.000000 0.000000 0.000000 0.000000 0.000000 0.000000 0.000000 0.000000 0.000000 0.000000 0.000000 0.000000 0.000000 0.000000 0.000000 0.000000 0.000000 0.000000 0.000000 0.000000 0.000000 0.000000 0.000000 0.000000 0.000000 0.000000 0.000000 0.000000 0.000000 0.000000 0.000000 0.000000 0.000000 0.000000 0.000000 0.000000 0.000000 0.000000 0.000000 0.000000 0.000000 0.000000 0.000000 0.000000 0.000000 0.000000 0.000000 0.000000 0.000000 0.000000 0.000000 0.000000 0.000000 0.000000 0.000000 0.000000 0.000000 0.000000 0.000000 0.000000 0.000000 0.000000 0.000000 0.000000 0.000000 0.000000 0.000000 0.000000 0.000000 0.000000 0.000000 0.000000 0.000000 0.000000 0.000000 0.000000 0.000000 0.000000 0.000000 0.000000 0.000000 0.000000 0.000000 0.000000 0.000000 0.000000 0.000000 0.000000 0.000000 0.000000 0.000000 0.000000 0.000000 0.000000 0.000000 0.000000 0.000000 0.000000 0.000000 0.000000 0.000000 0.000000 0.000000 0.000000 0.000000 0.000000 0.000000 0.000000 0.000000 0.000000 0.000000 0.000000 0.000000 0.000000 0.000000 0.000000 0.000000 0.000000 0.000000 0.000000 0.000000 0.000000 0.000000 0.000000 0.000000 0.000000 0.000000 0.000000 0.000000 0.000000 0.000000 0.000000 0.000000 0.000000 0.000000 0.000000 0.000000 0.000000 0.000000 0.000000 0.000000 0.000000 0.000000 0.000000 0.000000 -0.000000 0.000000 -0.000000 -0.000000 -0.000000 0.000000 0.000000 0.000000 -0.000000 -0.000000 -0.000000 -0.000000 -0.000000 0.000000 0.000000 0.000000 -0.000000 0.000000 0.000000 0.000000 0.000000 0.000000 0.000000 0.000000 0.000000 0.000000 0.000000 0.000000 0.000000 0.000000 0.000000 0.000000 0.000000 0.000000 0.000000 0.000000 0.000000 0.000000 0.000000 0.000000 0.000000 0.000000 0.000000 0.000000 0.000000 0.000000 0.000000 0.000000 0.000000 0.000000 0.000000 0.000000 0.000000 0.000000 0.000000 0.000000 0.000000 0.000000 0.000000 0.000000 0.000000 0.000000 0.000000 0.000000 0.000000 0.000000 0.000000 0.000000 0.000000 0.000000 0.000000 0.000000 0.000000 0.000000 0.000000 0.000000 0.000000 0.000000 0.000000 0.000000 0.000000 0.000000 0.000000 0.000000 0.000000 0.000000 0.000000 0.000000 0.000000 0.000000 0.000000 0.000000 0.000000 0.000000 0.000000 0.000000 0.000000 0.000000 0.000000 0.000000 0.000000 0.000000 0.000000 0.000000 0.000000 0.000000 0.000000 0.000000 0.000000 0.000000 0.000000 0.000000 0.000000 0.000000 0.000000 0.000000 0.000000 0.000000 0.000000 0.000000 0.000000 0.000000 0.000000 0.000000 0.000000 0.000000 0.000000 0.000000 0.000000 0.000000 0.000000 0.000000 0.000000 0.000000 0.000000 0.000000 0.000000 0.000000 0.000000 0.000000 0.000000 0.000000 0.000000 0.000000 0.000000 0.000000 0.000000 0.000000 0.000000 0.000000 0.000000 0.000000 0.000000 0.000000 0.000000 0.000000 0.000000 0.000000 0.000000 0.000000 0.000000 0.000000 0.000000 0.000000 0.000000 0.000000 0.000000 0.000000 0.000000 0.000000 0.000000 0.000000 0.000000 0.000000 0.000000 0.000000 0.000000 0.000000 0.000000 0.000000 0.000000 0.000000 0.000000 0.000000 0.000000 0.000000 -0.000000 -0.000000 -0.000000 -0.000000 -0.000000 -0.000000 -0.000000 -0.000000 -0.000000 -0.000000 -0.000000 -0.000000 -0.000000 -0.000000 -0.000000 -0.000000 -0.000000 -0.000000 -0.000000 -0.000000 -0.000000 -0.000000 -0.000000 -0.000000 -0.000000 -0.000000 -0.000000 -0.000000 -0.000000 -0.000000 -0.000000 -0.000000 0.000000 0.000000 0.000000 0.000000 0.000000 0.000000 0.000000 0.000000 0.000000 0.000000 0.000000 0.000000 0.000000 0.000000 0.000000 0.000000 0.000000 0.000000 0.000000 0.000000 0.000000 0.000000 0.000000 0.000000 0.000000 0.000000 -0.000000 -0.000000 -0.000000 -0.000000 -0.000000 -0.000000 -0.000000 -0.000000 -0.000000 -0.000000 -0.000000 -0.000000 -0.000000 -0.000000 -0.000000 -0.000000 -0.000000 -0.000000 -0.000000 -0.000000 -0.000000 -0.000000 -0.000000 -0.000000 -0.000000 -0.000000 -0.000000 -0.000000 -0.000000 -0.000000 -0.000000 -0.000000 0.000000 0.000000 0.000000 0.000000 0.000000 0.000000 0.000000 0.000000 0.000000 0.000000 0.000000 0.000000 0.000000 0.000000 0.000000 0.000000 0.000000 0.000000 0.000000 0.000000 0.000000 0.000000 0.000000 0.000000 0.000000 0.000000 -0.000000 -0.000000 -0.000000 -0.000000 -0.000000 -0.000000 -0.000000 -0.000000 -0.000000 -0.000000 -0.000000 -0.000000 -0.000000 -0.000000 -0.000000 -0.000000 -0.000000 -0.000000 -0.000000 -0.000000 -0.000000 -0.000000 -0.000000 -0.000000 -0.000000 -0.000000 -0.000000 -0.000000 -0.000000 -0.000000 -0.000000 -0.000000 0.000000 0.000000 0.000000 0.000000 0.000000 0.000000 0.000000 0.000000 0.000000 0.000000 0.000000 0.000000 0.000000 0.000000 0.000000 0.000000 0.000000 0.000000 0.000000 0.000000 0.000000 0.000000 0.000000 0.000000 0.000000 0.000000 -0.000000 -0.000000 -0.000000 -0.000000 -0.000000 -0.000000 -0.000000 -0.000000 -0.000000 -0.000000 -0.000000 -0.000000 -0.000000 -0.000000 -0.000000 -0.000000 -0.000000 -0.000000 -0.000000 -0.000000 -0.000000 -0.000000 -0.000000 -0.000000 -0.000000 -0.000000 -0.000000 -0.000000 -0.000000 -0.000000 -0.000000 -0.000000 0.000000 0.000000 0.000000 0.000000 0.000000 0.000000 0.000000 0.000000 0.000000 0.000000 0.000000 0.000000 0.000000
</DataArray>
<DataArray type="Float64" Name="Velocity" NumberOfComponents="3" format="ascii">