<VTKFile type="PolyData">
<PolyData>
<Piece NumberOfPoints="2064" NumberOfVerts="2064" NumberOfLines="0" NumberOfStrips="0" NumberOfPolys="0">
<PointData>
<DataArray type="Float64" Name="Pressure" format="ascii">
 11996.107120 11990.305316 11974.317619 11940.341626 11876.876313 11775.940897 11643.615296 11496.487302 11348.594800 11211.731770 11092.241278 10985.351326 10884.333525 10785.947847 10688.589128 10590.665329 10490.595583 10387.047321 10278.988570 10165.661028 10046.545833 9921.333920 9789.899397 9652.273901 9508.621136 9359.211673 9204.398601 9044.594771 8880.252308 8711.844867 8539.852903 8364.751984 8187.003994 8007.050946 7825.311032 7642.176499 7458.012958 7273.159729 7087.930921 6902.616959 6717.486361 6532.787642 6348.751313 6165.592094 5983.511795 5802.703955 5623.362928 5445.703714 5270.007103 5096.722942 4926.699779 4761.657229 4604.977858 4462.449741 4341.707130 4249.650090 4190.163235 4163.261370 12002.281718 11998.868291 11989.268751 11965.833241 11910.701490 11803.662284 11655.555139 11498.062840 11340.343146 11197.284866 11083.734962 10982.882150 10883.442324 10785.068954 10687.694181 10589.755961 10489.602722 10385.933501 10277.755180 10164.330775 10045.150274 9919.906464 9788.471610 9650.873633 9507.271652 9357.931387 9203.201197 9043.489574 8879.244810 8710.937346 8539.045055 8364.041542 8186.387284 8006.523375 7824.867487 7641.811663 7457.721536 7272.936613 7087.771282 6902.516282 6717.440422 6532.792392 6348.802609 6165.685076 5983.639445 5802.853744 5623.508941 5445.788210 5269.897971 5096.118907 4924.936836 4757.398175 4596.093725 4447.044742 4320.372464 4225.304924 4165.125077 4138.292785 12011.064110 12011.734923 12015.056541 12020.330258 11997.024261 11872.549550 11668.510218 11502.899476 11320.914936 11149.681500 11067.723245 10983.596635 10883.278430 10783.684908 10686.523170 10588.823641 10488.694099 10384.960766 10276.694910 10163.191248 10043.953587 9918.679293 9787.240506 9649.662658 9506.101265 9356.818023 9202.157260 9042.523701 8878.362289 8710.140619 8538.334261 8363.415041 8185.842146 8006.055805 7824.473178 7641.486078 7457.460121 7272.734940 7087.625135 6902.421685 6717.393592 6532.789585 6348.839725 6165.756751 5983.736912 5802.959805 5623.586044 5445.750171 5269.542821 5094.969744 4921.868175 4749.796587 4578.335719 4412.170620 4269.114615 4168.542847 4108.762586 4082.965141 12014.281631 12017.313250 12031.708163 12076.116298 12141.893603 11938.623340 11638.157727 11557.417037 11280.844015 11017.940337 11096.051733 10998.130936 10880.289498 10781.160761 10685.746058 10588.168624 10487.978746 10384.135858 10275.760716 10162.167003 10042.865586 9917.555261 9786.106754 9648.542617 9505.014781 9355.781098 9201.182102 9041.618964 8877.533455 8709.390461 8537.663334 8362.822169 8185.324876 8005.610809 7824.096593 7641.173775 7457.207914 7272.538731 7087.481006 6902.325939 6717.342734 6532.780223 6348.868304 6165.818945 5983.826190 5803.064052 5623.679536 5445.774279 5269.358882 5094.239986 4919.733596 4743.886100 4561.058793 4352.573601 4172.663404 4073.304091 4020.237433 3997.926846 12002.738204 12002.297820 12008.762137 12034.487923 8442.200288 11628.952814 8761.812974 9555.013632 9098.134872 10241.534160 6498.315483 9997.764333 9065.908103 6982.814935 7416.037064 9150.891327 10605.198830 6656.294063 8558.362285 6244.939278 8679.637356 8875.471247 10293.506578 7049.377228 7637.520167 9409.650807 6805.068683 8872.393239 6830.641461 6892.951209 11312.303063 7810.782095 7795.912097 10866.304083 9929.542300 8988.479826 7623.965349 9224.650489 9132.297177 6581.794888 7680.189464 9480.879660 7559.194645 9829.229034 3999.240705 3939.293564 3903.717861 3887.773838 11970.374282 11960.952801 11944.154017 11923.828502 7639.307685 8399.318577 6634.413923 7609.821103 7603.987381 6721.376232 7005.931800 10174.769341 11875.068399 6478.203262 9252.746783 11505.011516 8128.682643 10073.212021 6625.228133 7879.489911 10316.814173 8773.134809 10035.129084 10361.015565 8158.764366 9155.525328 8345.277343 8899.512036 7005.088833 7246.990114 6642.616555 7621.363449 7770.075847 9653.639959 8993.081756 11549.264278 8099.179371 11245.136309 9997.510037 7823.969824 8771.253969 7532.670032 7797.021472 9785.722333 3804.502555 3787.198476 3769.233222 3760.065948 11915.395996 11894.011000 11850.319732 11779.258004 9951.102607 7385.207354 6835.370219 6461.533635 7170.651437 6507.891814 10157.859033 6544.654222 6792.901241 7823.241971 6626.438225 8592.217797 6413.837021 11049.835838 6418.894293 6946.953792 6977.397554 8263.118546 7894.209813 7719.969158 8289.483217 9680.044710 7852.698090 11008.191895 6176.719962 7537.366364 6447.785818 6754.723913 10485.948690 11401.180330 8183.416745 8811.652879 6900.235146 8368.245972 6328.530621 8569.411016 11116.607191 7254.797903 8833.417420 9023.917530 3640.834270 3634.946915 3627.276600 3622.842392 11838.957736 11808.815125 11735.291426 11600.285644 8751.255115 6393.186545 6532.106933 7486.161631 8334.263021 6560.857793 7656.865673 7905.008567 8436.899685 10473.211287 8184.303190 11039.278007 6470.433986 8360.155770 7017.548568 10380.157875 10505.404197 6420.609211 7244.564306 10741.705209 8525.293068 6329.187734 9936.269253 6825.284175 11792.309131 6240.894348 6241.683339 10335.713434 9114.703044 11651.146231 9619.272701 8064.466423 11393.637592 7219.560038 11703.848849 9423.095591 8034.614104 7476.541982 11234.014469 8851.057595 3489.115537 3487.030347 3483.934712 3482.041717 11740.903925 11713.257756 11668.353601 11619.677544 6215.673605 7976.291294 8462.719348 9226.549976 7810.709602 8808.652641 10109.158148 6572.806781 15531.954867 6545.109568 6586.702635 8013.236476 6401.276937 6304.545909 7169.061324 12088.373306 10541.835501 8336.597638 6632.410565 8657.952493 8727.841856 6757.009600 7037.106652 10551.695377 6600.841311 7342.774219 9805.947355 6817.838820 8577.639965 8662.958440 7752.147726 7966.699360 9215.782984 10560.626864 8511.886330 7725.520049 6910.384432 6223.726439 8323.579858 9514.168260 3343.563564 3342.904762 3341.751002 3341.045981 11617.392668 11587.165533 11543.955119 11521.537441 6338.831660 9212.384256 9312.572596 10160.832282 9052.787199 6662.565699 6483.565873 6035.341029 9799.008474 6452.121080 9907.702563 11417.227267 6386.274847 6842.233954 7014.100523 14465.223145 6677.533463 9596.372915 6858.476648 11337.057845 6510.962964 9660.630979 9463.233389 9935.410545 6883.621158 6952.799683 8978.550859 6741.207096 6257.256762 10900.441268 10983.461749 11021.391066 7097.141844 9190.248928 8791.517557 8028.762816 6655.592930 7444.024977 6953.814706 7622.847540 3202.112806 3202.023328 3201.685824 3201.504097 11475.021096 11434.655920 11362.483585 11300.768137 7832.965389 6498.804687 11991.718047 10594.692799 6471.440460 8218.333381 8033.207779 9730.999348 5568.110819 13046.790085 9654.455744 8306.544891 6078.837392 6866.353450 9860.007646 15714.825781 7851.551328 5430.472422 6597.907472 7219.090361 8297.962723 17330.805168 5061.834063 9496.132837 8698.688066 10377.390742 6299.243516 10537.179200 7690.920434 7732.208000 10843.956723 10321.459839 6547.858093 8402.226082 6615.658672 6526.078399 10882.823361 7857.233895 10238.238055 10447.251182 3063.966930 3064.111926 3064.117374 3064.160510 11331.160864 11286.861851 11186.980554 11057.555107 10495.206755 7386.470355 11513.937563 9699.624592 12216.969270 13657.251420 5613.482905 11331.591203 7456.606415 6223.664901 8555.532628 1877.477073 4473.129067 7252.138081 6245.720439 9514.705539 6931.974263 12686.330340 10638.474352 9917.449814 6595.439907 19183.931327 15748.156065 7038.991716 6133.802964 9898.960548 2057.236617 10330.317704 9649.134977 9686.002808 7834.428398 8960.336124 7119.305839 9010.306285 9589.016096 7493.401696 6062.376809 6985.576097 9586.278615 7795.485747 2928.808082 2929.051466 2929.201410 2929.340387 11195.205759 11167.135988 11110.817843 11018.517409 10003.057812 10120.212199 9440.919627 12311.181866 13971.592310 14130.820939 13850.204282 18735.114144 13132.637101 7455.200383 5847.798507 9918.502668 8051.817332 8995.123053 9866.176730 6897.659033 9456.707345 10065.565037 6412.697577 6435.562630 9398.662713 9653.274922 6955.416786 11304.291506 8304.235245 10519.660802 8169.332932 8435.595761 7006.346075 6246.988131 10697.055668 5230.626845 7547.853945 7619.369889 11723.348388 9893.030034 7140.208560 6227.094283 6586.036284 8961.339596 2796.506667 2796.791933 2797.003047 2797.182888 11055.903549 11046.701795 11050.174214 11057.938184 15209.955430 9229.822850 7931.758260 7493.020240 11547.679888 11786.153416 7033.883410 11098.749978 14699.370416 9326.892756 9291.973903 12401.997689 9136.208163 15713.181815 12126.264424 8726.384815 9593.427550 6333.783022 9004.626302 9607.529155 8200.693996 1324.592456 7404.986757 8842.094648 6757.582062 6502.379598 8972.831365 6578.754118 6562.951033 7262.606369 8266.048207 11462.655082 9736.415094 6016.003380 7934.855107 11305.552543 6688.540792 9008.220153 7821.533990 6861.425782 2667.007249 2667.310531 2667.547656 2667.744973 10899.415547 10894.859486 10892.967958 10874.977671 7099.123298 10378.593698 13312.196106 6571.876105 6236.508999 8330.560557 6787.388817 10264.729655 9580.408483 6986.881215 7615.796724 8691.070008 10357.145908 10778.700566 7721.451311 10700.674940 12610.255866 8151.452333 8700.536838 7564.101975 11275.651486 12273.973590 11887.926105 6916.933028 6599.022250 16566.757802 11853.759279 6104.882100 5793.895657 7629.917167 7350.591721 12205.199909 6111.838456 5840.823005 6669.957266 8206.660697 6979.276928 7946.374095 6873.665505 7688.176866 2540.282281 2540.593253 2540.841387 2541.046123 10725.410157 10721.901798 10723.246016 10711.776471 9468.410350 14783.066797 6265.859897 7691.569801 11658.528704 10682.185085 8333.395337 5283.963667 5787.390229 7259.853883 11561.232351 11839.054966 15798.379065 6773.315744 9054.977370 6814.952597 7605.870579 6781.290276 7549.416037 5000.556872 6090.669935 16836.239564 12692.708534 17622.166349 8534.391164 10725.224113 11227.188614 6413.715143 9702.586036 10364.365345 11921.847878 8705.573681 6579.156877 9827.946050 11020.986754 5873.030782 5640.216999 6948.703416 -4567.923796 6645.937776 2416.313132 2416.627125 2416.879704 2417.087412 10539.854837 10530.743642 10529.599577 10586.667256 6079.276858 7146.922570 7214.348472 3311.304705 12694.693156 6912.891957 18425.999137 6354.365789 9150.507167 6317.003330 5373.603598 11369.690965 5807.614570 6528.270500 8025.911308 7385.102355 6512.475838 4056.170924 7488.684071 6441.211590 6263.944451 7824.465905 8885.953684 7391.904072 6948.967048 12124.946663 9764.030916 6919.388164 8187.759954 10030.003500 14551.425692 6370.128833 9372.483004 8417.928745 7175.427071 6467.757564 9316.235061 7030.673600 6685.030006 6412.517484 2295.082338 2295.397057 2295.651060 2295.859653 10354.323758 10330.479975 10253.873203 10121.376337 12303.304888 7750.097643 8272.038561 6877.676727 6777.094342 10310.373661 5811.033858 6435.626360 7956.211085 17877.562555 6494.739513 5970.987341 6570.471018 6722.089763 7739.245887 7814.175769 6753.290336 8645.216778 7723.399074 6371.981489 5115.926031 8086.941155 9134.232217 7018.860408 6480.007370 7538.075411 9262.578588 7752.897481 12239.016869 8005.632716 9707.886328 7374.034866 7170.373438 10397.144004 7909.427387 14790.036787 8582.475256 9592.474457 7194.284877 8410.510100 2176.570489 2176.884648 2177.138545 2177.346930 10181.935485 10166.651020 10103.135775 9916.481098 5348.784606 7972.801787 6235.197296 7832.691841 8356.788707 8007.587301 9581.262046 13510.196697 8779.552797 11659.696928 6598.771774 6918.054625 6759.098834 14436.274978 7488.231624 6709.820274 6615.036855 6365.799986 5212.223953 15433.010187 7223.577997 6659.049444 6379.495582 9184.540966 8634.814541 10781.713418 5154.802933 8300.466331 10026.390318 6406.536829 6492.683391 6694.889694 15792.217891 9276.015888 5558.903914 10344.348411 7007.721185 6098.115587 8605.447389 7714.679327 2060.755053 2061.067797 2061.320695 2061.528208 10013.090539 10025.373775 10077.693567 10191.251701 13845.064910 6344.290891 6629.963778 7523.765968 6486.142228 11095.637329 7422.298724 8576.831490 9881.775711 9663.953374 5946.382273 4226.622226 7086.754613 9149.413285 7169.257760 11463.371420 6711.026608 1961.578343 11540.355996 4006.441024 -619.603659 7844.937024 6443.116331 13317.688977 6491.375762 8275.771639 7291.105109 6837.323833 7650.484218 8701.755706 6596.272564 10162.865315 10637.156761 7835.209669 8830.823354 8057.658166 7684.922856 11489.431743 9208.085406 9073.066849 1947.609991 1947.920663 1948.171943 1948.378105 9824.068424 9841.106630 9891.627725 9991.884033 6529.398906 8946.564213 9117.586611 7772.147234 9578.683088 7164.959523 9976.766647 9051.072045 10028.821962 11523.731294 10120.729022 6676.247728 15704.674690 6304.871670 6463.354158 6867.096547 11009.968175 9987.413447 6195.384159 12811.567370 9034.239670 8788.378588 8767.167194 11534.018258 10277.237209 9739.778518 139.440808 6901.063133 9324.514832 6443.374175 10953.549361 7429.137645 6466.898670 7756.804741 7859.721170 7772.423994 9945.305622 6906.140889 9610.038776 13822.650136 1837.105705 1837.413740 1837.662911 1837.867330 9612.634569 9618.526755 9641.739432 9695.461111 10428.751462 7874.358504 7379.454946 6873.936265 8029.528628 11145.777749 -7437.309808 7707.656268 8561.008252 6611.859689 6530.339500 8057.478761 5469.698232 7598.143835 8985.735676 7546.341352 6508.273102 7326.275984 7800.525877 4902.571771 -1025.046629 8898.856175 10783.031036 7805.876670 7344.814519 7130.831172 8011.877433 8244.150877 11594.855836 7633.849760 9626.320203 7296.708610 12135.547131 8560.312293 10051.104745 7236.982529 6287.128261 7633.434006 11428.968064 11466.870546 1729.209114 1729.513997 1729.760628 1729.962955 9395.676206 9384.865940 9342.271290 9277.801492 8342.851585 6545.739945 8043.812800 1403.988384 6165.815678 7064.197764 14266.638852 9573.683275 7797.897966 -9511.760391 7933.725513 10189.789906 8851.463532 15830.104004 7849.165913 5088.390707 8087.333517 5978.122164 7545.555859 11762.878049 14454.675317 -11820.728778 6069.851289 8898.210743 9247.466079 6403.839812 7568.171445 6470.310287 7147.603966 10694.381497 8951.422238 6375.514919 11153.271042 6543.787099 8135.321447 8130.902416 6899.336749 7351.713910 11497.495229 2997.064855 1623.883771 1624.185020 1624.428714 1624.628626 9194.039274 9182.120659 9148.148332 9062.972902 8432.253320 11471.275894 6457.596266 5587.035182 7260.168033 9535.402404 7073.901705 9201.535422 7817.157628 9171.572737 6980.242884 7550.750605 10632.572167 7247.797931 5879.152028 7348.406812 11063.000621 10722.776298 11104.183241 6935.302110 6412.028925 15460.820361 8301.720581 8570.561088 7935.183927 8556.031391 11506.418769 10982.103247 10942.290988 7027.335720 9015.715345 6804.498286 9339.180386 11868.863136 9108.370192 7968.072679 6836.599073 7191.162811 6936.872382 5631.874543 1521.089998 1521.387154 1521.627535 1521.824726 9013.132655 9009.497632 8995.400804 8963.679052 1420.785013 1421.077635 1421.314346 1421.508522 8847.086829 8854.913848 8894.548293 8991.150706 1322.923052 1323.210714 1323.443409 1323.634286 8688.975586 8691.732856 8698.269057 8754.115559 1227.455471 1227.737758 1227.966103 1228.153408 8545.145116 8545.045724 8534.346678 8516.349888 1134.330841 1134.607353 1134.831022 1135.014486 8419.833681 8422.735675 8442.306322 8500.093580 1043.495030 1043.765373 1043.984049 1044.163413 8306.729432 8299.418932 8288.396033 8317.592749 954.891266 955.155057 955.368428 955.543436 8197.331452 8172.603088 8113.162755 8083.203309 868.460198 868.717060 868.924821 869.095222 8080.707810 8038.093285 7947.770528 7885.725715 784.139938 784.389498 784.591349 784.756896 7952.513545 7895.276480 7759.519957 7635.235641 701.866101 702.107993 702.303636 702.464087 7824.864287 7774.018402 7666.877769 7592.203975 621.571839 621.805702 621.994846 622.149960 7710.391252 7674.262137 7592.751507 7490.256665 543.187877 543.413355 543.595712 543.745254 7616.507167 7601.561021 7581.512090 7586.374721 466.642555 466.859300 467.034587 467.178325 7541.803353 7540.107029 7551.866564 7626.773808 391.861880 392.069551 392.237495 392.375204 7484.042841 7490.119568 7488.446346 7469.222856 318.769599 318.967869 319.128205 319.259670 7437.985341 7462.856236 7531.297377 7627.883458 247.287306 247.475865 247.628344 247.753359 7389.201627 7416.441098 7509.439289 7715.742135 177.334583 177.513145 177.657535 177.775912 7335.453765 7341.076896 7339.936402 7329.176722 108.829199 108.997509 109.133605 109.245178 7290.256257 7288.147074 7282.333920 7288.144069 41.687375 41.845219 41.972849 42.077477 7255.450618 7250.995138 7262.527130 7324.176178 -24.175876 -24.028660 -23.909623 -23.812044 7224.977821 7212.527952 7197.277043 7185.389062 -88.846307 -88.709814 -88.599446 -88.508974 7195.382451 7173.744663 7181.859555 7363.449440 -152.409887 -152.284130 -152.182439 -152.099079 7165.424042 7115.881913 7011.374206 6886.330847 -214.952129 -214.837023 -214.743935 -214.667625 7136.524884 7082.032820 7001.326030 6897.240636 -276.557274 -276.452614 -276.367962 -276.298561 7087.567343 7021.977177 6973.686398 7126.014773 -337.307334 -337.212779 -337.136281 -337.073556 7011.437221 6895.582745 6697.285556 6575.702266 -397.280970 -397.196019 -397.127267 -397.070879 6945.641518 6795.353784 6444.228284 6034.338895 -456.552221 -456.476192 -456.414631 -456.364120 6925.415367 6812.011833 6603.405544 6421.470304 -515.189063 -515.121075 -515.065988 -515.020764 6931.790366 6863.239996 6722.114488 6501.410697 -573.251832 -573.190786 -573.141280 -573.100606 6933.487312 6912.721348 6908.620862 6939.227141 -630.791506 -630.736069 -630.691061 -630.654045 6903.031986 6904.034061 6914.133580 6902.182725 -687.847884 -687.796477 -687.754687 -687.720274 6834.079671 6841.547892 6917.702462 7132.056145 -744.447691 -744.398481 -744.358422 -744.325392 6736.745273 6709.050101 6617.185808 6511.948058 -800.602644 -800.553544 -800.513527 -800.480490 6646.538099 6610.804413 6502.361226 6222.272332 -856.307545 -856.256220 -856.214355 -856.179760 6575.849218 6554.644896 6525.030604 6548.580937 -911.538441 -911.482324 -911.436534 -911.398676 6518.834631 6502.265381 6473.394807 6449.536525 -966.250935 -966.187247 -966.135287 -966.092324 6476.508924 6461.367883 6429.313542 6358.717321 -1020.378696 -1020.304482 -1020.243963 -1020.193936 6452.771090 6438.489450 6411.030131 6418.277155 -1073.832256 -1073.744424 -1073.672849 -1073.613712 6451.147386 6442.494927 6396.975327 6252.587948 -1126.498155 -1126.393528 -1126.308332 -1126.237986 6467.100631 6474.948318 6521.327550 6628.432933 -1178.238503 -1178.113879 -1178.012479 -1177.928808 6490.468046 6493.392746 6474.460729 6401.014341 -1228.891024 -1228.743240 -1228.623087 -1228.524006 6526.308324 6533.193162 6568.194618 6644.083137 -1278.269615 -1278.095623 -1277.954258 -1277.837758 6578.507241 6575.058067 6535.094453 6488.156315 -1326.165475 -1325.962413 -1325.797534 -1325.661733 6655.738935 6663.631345 6661.329098 6618.134082 -1372.348805 -1372.114079 -1371.923597 -1371.766791 6746.752788 6771.600264 6831.243876 6899.633378 -1416.571095 -1416.302451 -1416.084555 -1415.905267 6832.219554 6855.815923 6923.292373 7052.763527 -1458.567962 -1458.263560 -1458.016773 -1457.813799 6910.534224 6908.568355 6893.191333 6874.820906 -1498.062507 -1497.720985 -1497.444215 -1497.216671 7000.052826 6982.964108 6885.186008 6635.803212 -1534.769127 -1534.389658 -1534.082246 -1533.829597 7110.494632 7111.275283 7146.454504 7208.967819 -1568.397700 -1567.980033 -1567.641783 -1567.363881 7232.843417 7224.840941 7197.360745 7182.071473 -1598.658042 -1598.202531 -1597.833739 -1597.530830 7376.107966 7368.778644 7338.003635 7310.640054 -1625.264520 -1624.772139 -1624.373598 -1624.046340 7543.978458 7547.673675 7559.360909 7534.474766 -1647.940706 -1647.413046 -1646.986044 -1646.635497 7725.956633 7736.753041 7751.920580 7703.850419 -1666.423933 -1665.863175 -1665.409478 -1665.037096 7911.018354 7925.584620 7990.867932 8114.371513 -1680.469616 -1679.878496 -1679.400317 -1679.007914 8092.022956 8088.779325 8034.951164 7855.553723 -1689.855229 -1689.236981 -1688.736932 -1688.326649 8274.222422 8280.481127 8327.023613 8370.405104 -1694.383793 -1693.742077 -1693.223110 -1692.797369 8449.097812 8435.592885 8424.422932 8494.853670 -1693.886787 -1693.225601 -1692.690943 -1692.252386 8629.022642 8588.070852 8465.318622 8238.360504 -1688.226373 -1687.549960 -1687.003034 -1686.554463 8830.460688 8793.735024 8710.303008 8638.851513 -1677.296885 -1676.609627 -1676.053966 -1675.598271 9047.693686 9013.498665 8985.807546 9109.148323 -1661.025510 -1660.331820 -1659.770980 -1659.311072 9279.987319 9218.646580 9040.724719 8741.011251 -1639.372154 -1638.676364 -1638.113837 -1637.652569 9545.459313 9494.060849 9370.650991 9190.993113 -1612.328484 -1611.634737 -1611.073862 -1610.613962 9834.237542 9804.463996 9756.149949 9719.028412 -1579.916170 -1579.228318 -1578.672198 -1578.216202 10122.877177 10096.385066 10063.649309 10046.736978 -1542.184382 -1541.505891 -1540.957318 -1540.507505 10403.848144 10358.101196 10255.698678 10046.837840 -1499.206594 -1498.540463 -1498.001854 -1497.560197 10689.570798 10622.785732 10492.242719 10323.382988 -1451.076797 -1450.425490 -1449.898841 -1449.466962 10994.503443 10908.024471 10686.779591 10288.150877 -1397.905202 -1397.270608 -1396.757466 -1396.336616 11321.031548 11246.207321 11086.441995 10782.229442 -1339.813541 -1339.196967 -1338.698450 -1338.289515 11642.618242 11579.841558 11480.662387 11336.975594 -1276.930056 -1276.332282 -1275.849180 -1275.452746 11934.751270 11853.879409 11724.286443 11628.603467 -1209.384230 -1208.805695 -1208.338751 -1207.955292 12203.991578 12079.509205 11807.022508 11393.573178 -1137.301221 -1136.742493 -1136.293106 -1135.923449 12478.872961 12323.546875 12001.554861 11631.479065 -1060.795736 -1060.258640 -1059.830535 -1059.476981 12782.956460 12607.899844 12192.518180 11655.231768 -979.964541 -979.454849 -979.058077 -978.727050 13134.466465 12979.909660 12655.661466 12187.799434 -894.875505 -894.409371 -894.069831 -893.778179 13525.056723 13395.279116 13156.923170 12905.968211 -805.547939 -805.167431 -804.949639 -804.739480 13933.680700 13817.851465 13555.126819 13166.853428 -711.911261 -711.722490 -711.783977 -711.757232 14340.280423 14253.687086 14112.311054 13980.630083 -613.709114 -613.978972 -614.700090 -615.096139 14718.911377 14649.029869 14511.674280 14315.373299 -510.261080 -511.679533 -513.970520 -515.326902 15055.047344 15004.586185 14976.714571 15059.178609 -399.818834 -404.305801 -410.303450 -413.721082 15339.863529 15279.320089 15128.710866 14893.881393 -277.584472 -291.289906 -305.655314 -312.932592 15583.402874 15549.681957 15482.812834 15345.479259 -127.882913 -176.040441 -204.839262 -217.694414 15774.525432 15773.603902 15822.203866 15966.430208 15675.968400 14943.492260 15852.248654 16574.574549 15799.451120 16227.402200 13580.733686 14143.194744 13630.694861 12155.568242 10987.879503 9734.774825 9393.200582 8905.683832 8181.482594 7312.125354 6910.005818 7032.416292 6490.091118 5984.320555 5974.853260 5672.289434 5452.508559 5300.520188 5184.806132 4991.728443 4784.011372 4568.010752 4346.554404 4121.171664 3893.006435 3663.146257 3432.721819 3202.906173 2974.873206 2749.745173 2528.544500 2312.157032 2101.309082 1896.557721 1698.291975 1506.741359 1321.986825 1143.966438 972.461168 807.027704 646.793103 489.858403 331.396273 156.298472 8.410731 -72.855962 -116.309961 -134.504038 15898.104457 15898.158148 15910.085355 15923.936254 15810.380882 15585.647853 15738.018875 15883.019014 15505.331116 15045.190526 14137.894608 13656.785575 12862.199383 12006.792299 11125.447678 10308.313907 9680.351564 9106.490612 8520.780869 7954.362915 7528.531827 7172.698853 6798.417471 6450.122618 6154.940426 5883.078846 5632.986889 5411.718357 5206.474433 4999.768401 4786.809081 4568.692543 4346.392901 4120.739228 3892.577924 3662.859508 3432.645071 3203.067904 2975.276638 2750.376557 2529.378848 2313.162638 2102.451317 1897.802362 1699.608464 1508.106910 1323.393577 1145.436942 974.085314 809.055938 649.889602 495.883518 346.355251 204.724594 84.796821 1.167704 -48.333452 -69.573467 15963.407949 15957.296043 15945.085729 15914.365657 15857.554439 15785.873493 15725.886069 15577.199407 15246.683476 14737.378590 14102.664839 13418.144753 12688.836289 11922.383221 11163.476525 10458.892054 9829.788522 9253.888537 8708.552876 8201.022156 7748.137129 7338.386358 6952.225116 6593.207531 6267.898658 5971.822216 5702.583582 5457.980620 5230.479498 5010.268051 4791.056345 4570.139180 4346.640663 4120.532924 3892.271891 3662.626566 3432.569323 3203.186360 2975.598750 2750.894418 2530.073438 2314.008324 2103.419509 1898.864834 1700.740965 1509.294461 1324.640623 1146.789878 975.685140 811.262861 653.576042 503.093076 361.491414 233.152751 125.649566 45.736071 -4.526644 -26.777634 15987.148458 15977.320072 15958.687005 15921.874638 15863.366375 15784.930105 15668.884505 15461.475962 15112.742605 14618.651460 14014.129014 13344.719436 12636.009680 11908.459041 11191.602025 10515.338826 9893.884548 9321.164610 8786.686166 8289.236991 7831.609656 7409.488270 7016.093050 6650.881788 6315.836597 6010.361130 5732.437412 5478.515704 5242.232241 5015.899442 4793.308092 4570.763981 4346.556355 4120.196560 3891.912472 3662.361761 3432.459540 3203.259422 2975.861769 2751.340369 2530.685597 2314.763797 2104.292290 1899.828610 1701.772061 1510.375765 1325.768592 1147.989406 977.042988 813.001780 656.205984 507.652495 369.630566 246.306675 143.267345 65.483916 15.583218 -6.797262
</DataArray>
<DataArray type="Float64" Name="Velocity" NumberOfComponents="3" format="ascii">