<VTKFile type="PolyData">
<PolyData>
<Piece NumberOfPoints="2064" NumberOfVerts="2064" NumberOfLines="0" NumberOfStrips="0" NumberOfPolys="0">
<PointData>
<DataArray type="Float64" Name="Pressure" format="ascii">
 10465.159006 10453.502707 10431.821372 10397.822847 10349.951453 10286.306392 10203.884650 10104.602575 9999.830759 9901.597064 9818.098126 9757.602482 9725.633249 9716.885233 9717.563686 9715.039282 9702.044710 9675.471358 9634.458553 9579.247088 9510.605730 9429.541548 9337.147628 9234.520219 9122.713313 9002.714765 8875.435394 8741.706093 8602.279827 8457.836485 8308.989246 8156.291564 8000.244166 7841.301735 7679.879020 7516.356292 7351.084084 7184.387239 7016.568297 6847.910285 6678.679001 6509.124896 6339.484710 6169.983118 6000.834927 5832.248960 5664.436254 5497.628691 5332.122163 5168.375921 5007.234104 4850.381906 4701.111143 4565.040492 4449.581394 4361.448917 4304.448342 4278.644146 10450.039559 10439.217005 10418.502216 10384.929543 10336.867927 10274.908502 10191.099525 10082.196688 9970.146312 9870.171347 9782.640830 9717.531062 9690.419322 9693.839212 9704.468864 9707.251467 9696.692051 9671.273992 9630.883849 9576.078915 9507.755130 9426.967705 9334.826265 9232.431810 9120.839291 9001.036762 8873.935476 8740.367195 8601.086116 8456.773586 8308.044337 8155.453364 7999.502860 7840.648850 7679.307279 7515.859459 7350.656808 7184.024906 7016.266888 6847.666241 6678.489079 6508.985979 6339.393498 6169.935502 6000.824595 5832.264163 5664.452211 5497.589808 5331.900962 5167.681511 5005.425179 4846.166462 4692.430128 4550.053834 4428.845035 4337.774198 4280.079823 4254.332880 10422.788221 10413.023832 10396.218503 10365.436519 10312.579687 10258.276263 10178.232503 10033.489428 9905.001180 9813.235194 9714.888170 9626.286668 9611.711232 9652.587857 9686.424876 9697.872393 9690.956050 9667.165333 9627.574963 9573.229862 9505.225361 9424.695936 9332.781210 9230.592695 9119.188689 8999.558334 8872.613540 8739.186872 8600.033572 8455.836220 8307.210868 8154.713836 7998.848587 7840.072316 7678.802020 7515.419926 7350.278239 7183.703191 7015.998441 6847.447872 6678.317838 6508.858930 6339.307293 6169.885478 6000.802707 5832.254122 5664.417994 5497.448363 5331.457395 5166.475439 5002.369944 4838.738493 4675.197357 4516.277696 4379.184421 4282.710523 4225.337632 4200.561738 10380.442622 10370.567882 10360.474560 10352.677943 10271.399609 10211.710525 10173.657246 9937.452676 9792.502117 9770.408590 9647.916348 9446.772392 9484.545234 9630.485741 9674.448280 9691.035209 9686.412251 9663.678236 9624.632528 9570.626627 9502.879299 9422.571972 9330.860412 9228.860620 9117.631539 8998.162113 8871.364236 8738.070879 8599.038065 8454.949410 8306.422134 8154.013763 7998.228933 7839.525930 7678.322740 7515.002458 7349.918035 7183.396331 7015.741518 6847.237871 6678.152011 6508.734622 6339.221643 6169.834800 6000.781093 5832.250186 5664.407123 5497.374113 5331.186000 5165.680889 5000.223112 4832.951088 4658.446924 4458.702357 4285.878201 4190.371537 4139.370086 4117.916891 10323.281656 10305.415877 10283.827449 10300.585788 8699.961715 10114.385461 8621.424580 8946.031217 9136.009006 7910.442888 6292.401297 8736.647348 8854.092818 8534.126456 7015.687930 8329.007704 9787.137259 6804.590933 8148.577360 6078.128275 8390.823389 8890.143026 9711.157139 6818.724955 6909.289416 8843.328397 6341.480860 8573.532239 6801.858480 6959.967214 10168.658648 6857.225624 7067.996248 9361.731451 9928.929005 8546.690970 6417.810046 8581.730768 8963.831006 6464.870199 13112.543418 9000.020375 7064.059070 9344.990885 4118.137996 4060.385982 4026.144860 4010.791190 10259.963915 10226.960319 10138.392957 9991.669184 7424.770057 7650.466208 6236.648365 8783.698988 6286.310312 6827.389195 7371.734587 8978.993752 10061.084551 6403.969951 8423.425993 10178.102272 7379.384543 9803.317254 6313.151697 6533.855740 9175.169033 8777.008048 9219.393295 9451.624880 6600.919628 8671.040677 8873.641264 9102.070185 6146.087229 6587.430611 6331.388881 7280.514089 6797.635023 8611.423456 8470.314409 10145.448305 8209.109233 10138.904870 9331.058332 7381.190669 9560.892063 7473.817109 7154.165341 9117.811371 3929.303378 3912.601776 3895.283008 3886.437512 10204.393495 10173.934066 10103.030122 9972.929117 9614.141873 8575.937868 5257.142838 7194.771858 9680.131134 6312.189157 8472.264255 6265.309443 6530.847854 7048.979366 6222.558163 6913.493985 6060.314645 10010.334962 6252.022395 7160.586126 8095.347083 7149.147582 7816.714996 6890.621526 7496.091368 8624.338945 7007.841420 10045.868412 5876.211572 6806.249260 6303.766304 6067.152664 9626.481243 9932.402189 7376.495087 9424.754805 6970.624737 8625.485071 9793.458858 8252.951343 9834.945371 6832.706398 8655.024884 9400.446661 3770.006439 3764.296839 3756.881472 3752.587035 10157.196239 10136.248875 10105.417898 10091.914959 8657.045813 6417.813957 6547.549000 6900.497651 8006.179498 6573.912756 7510.570855 6739.887069 6915.119641 9894.304728 11491.672421 10043.900794 6783.638024 7298.026992 6576.533054 9135.940611 10624.737661 6454.294991 8400.087518 9661.357647 7210.956649 6122.086717 9536.471832 6922.496278 10001.796326 6215.641573 6380.097157 9150.733450 8719.621259 9967.887160 9235.448654 7365.297979 9894.306297 8175.157334 10272.238995 11060.547909 7906.286036 6787.846226 10058.076400 8824.320365 3621.872424 3619.824029 3616.811482 3614.962495 10112.645490 10094.990276 10056.179124 9991.435750 10838.993140 6962.893647 8926.727649 8710.724035 7046.071952 8498.185674 9117.891218 8064.342568 17321.603709 6157.842223 6218.172256 7985.047507 6209.719452 6457.063952 6201.578090 10266.008998 9307.811145 9110.557539 6377.947335 8373.466544 9424.261974 6183.623785 8041.951652 9918.860708 5852.215445 6310.051862 8765.646567 6094.761403 8924.605659 8747.210396 7562.551207 7075.874935 8321.843149 9694.241325 8282.081570 7215.926902 6949.468247 18150.702130 6725.138972 8895.251054 3479.353333 3478.679554 3477.537058 3476.832254 10069.787769 10058.368219 10041.752019 10046.633363 8527.796585 8713.565018 11568.117642 21663.506139 11510.704797 8975.027963 6209.004606 6893.401029 10212.409913 9185.517681 8117.461495 14296.931066 7244.079800 6222.074616 12072.169228 22421.390818 28679.577288 9153.599246 7634.643704 9871.138096 6538.194370 9094.377384 9783.419915 9358.422470 7236.859584 7965.432935 6036.605068 6385.241935 6898.798968 9196.121036 9761.614902 9966.130509 6415.321356 8888.183220 8600.208254 6981.288314 6344.011098 8729.243358 8035.685032 7286.347573 3340.478025 3340.353980 3339.998461 3339.798404 10027.507570 10021.456509 10004.600921 9965.319824 15439.914292 8725.728523 15107.529571 12429.549013 9042.949875 10294.273896 11672.743392 13246.903021 6022.530106 21298.101285 12460.423112 11284.508579 11237.490772 10984.438484 12516.837966 20600.794891 17533.977754 13584.604592 11474.866437 15785.872666 8040.747428 21520.661319 15234.884658 8881.894022 8514.039041 9180.454856 6037.842091 9464.881748 9170.645043 6906.591176 10126.942425 9348.184025 6636.220423 6807.241586 6344.430847 8097.022422 9747.640117 7323.303231 9863.883094 8517.334773 3204.495828 3204.599196 3204.575150 3204.592651 9983.625305 9989.921994 10006.074730 10023.182703 14145.211863 9059.025273 15479.058545 12400.026227 15523.052805 19097.644399 6578.836337 14505.895685 10237.006038 6101.923975 23375.874034 34768.006166 11952.432817 10681.021137 15534.483363 14089.862455 9615.619501 18879.496916 14285.131445 12632.368093 8436.576116 22262.661519 21350.071035 6247.723669 5585.937310 9116.475197 15602.501359 9636.493049 9363.710048 8841.817189 7964.657043 8590.801890 6180.730853 8412.857103 8773.036988 7368.157208 6756.460863 6833.346148 9733.171308 8234.968364 3071.115777 3071.315513 3071.431896 3071.542748 9929.885017 9948.061942 10012.254730 10159.719022 13735.139538 12389.022385 10752.831888 16284.974616 18125.081673 19166.916545 18906.129043 20039.764460 19180.967255 8929.586836 12136.236067 13710.850022 10596.835943 13302.398270 12456.374179 11005.434043 13080.006500 14774.634500 5830.754174 7444.727857 12207.637946 13408.389891 9543.660432 14849.792796 10312.174747 10056.661151 8044.285863 11851.557034 6287.840166 5859.804738 9309.319263 12853.338281 5730.213434 6479.376563 10117.447576 8957.906793 10044.927327 6827.273905 6597.436003 8863.561274 2940.227397 2940.469047 2940.645604 2940.796852 9859.257482 9871.906152 9910.497985 10000.600512 21439.701598 14460.430778 11919.747770 7343.313252 16087.150783 21649.405036 9888.108709 14154.935568 17635.180042 12822.777069 11361.224599 14888.863437 14164.992691 20810.774674 17173.438513 16397.576627 12490.377735 5794.171782 11123.714403 11742.223913 11374.578035 27312.629754 37013.583481 10711.006110 9081.180251 10690.573518 12096.127779 7977.410034 6376.681358 6141.471773 11079.740181 18316.343649 12353.769716 6278.735328 7118.325265 9993.849914 13419.146133 8877.628186 7312.964331 7799.105555 2811.790933 2812.051457 2812.254293 2812.423378 9779.163001 9780.568091 9776.682746 9800.586063 9491.190498 15483.321053 17796.101765 13094.345097 13360.630493 11510.515584 6638.581669 16528.098770 12805.626024 11548.783344 10958.700054 11170.370534 13357.938004 15900.155204 11804.204947 14364.540808 17465.474642 10903.071466 10820.929088 9465.766324 15295.523405 16244.464030 16182.226594 8964.415820 5856.606210 19925.836335 15122.204334 6381.812620 17582.523534 8374.670468 8611.035971 21129.729387 11955.759260 11415.456273 8700.784960 9137.126620 6652.572566 7498.445557 6238.646485 7496.826983 2685.792837 2686.062228 2686.276845 2686.454043 9702.427757 9703.297841 9690.671864 9659.627642 11413.089813 19115.173603 12191.022395 7202.771716 10216.417893 10183.265578 7279.432646 6653.636150 12803.739482 11160.016133 9864.551399 16267.862357 22407.521693 10146.659572 11833.566471 10252.855443 15304.793141 6188.313806 8621.243890 12612.421074 7716.353920 20161.763882 17166.585321 22703.982535 8154.320310 14165.530279 19878.469373 6579.829637 12432.759440 15551.326991 18531.835545 11490.626413 9270.412563 14036.838725 13467.415004 6783.084202 18579.044591 5828.302418 61869.592626 6062.820751 2562.227513 2562.501207 2562.721234 2562.902219 9630.810667 9645.347267 9672.292263 9687.332719 12411.204794 10943.444946 6157.427760 10676.451005 22651.346524 14077.326145 22444.446980 11705.471363 8526.498350 6387.328818 771.822265 14541.742137 6301.969670 7432.685284 6949.274979 10761.735380 6766.451150 13112.327600 11192.749985 6040.130324 6085.248040 9849.487715 11676.183050 13418.468047 6469.838409 16714.324637 12218.592980 10121.326161 13298.342504 23203.329233 19813.000819 11510.356123 12019.256561 10890.810358 13121.789863 6724.093311 11833.530716 15117.428389 6392.888429 6034.078816 2441.089865 2441.365588 2441.588061 2441.770779 9551.016005 9584.364980 9659.079235 9721.690739 17852.364559 13340.439714 10436.599220 5904.915398 10982.325629 13098.279122 7345.132786 5300.855705 7665.081064 19814.659834 15443.976499 14047.220122 6790.900147 14771.419200 8192.117345 13758.723625 5857.679563 28026.371308 16560.606493 19474.957750 10753.544183 18668.872238 8850.506814 9230.373018 6140.340793 18395.104771 11735.136206 6953.639296 16001.216654 7700.103708 14203.691483 11286.764803 10791.141068 13483.744455 7968.880248 20874.449240 11520.917585 13566.676971 10726.125230 12837.012313 2322.372313 2322.648759 2322.872152 2323.055509 9445.073522 9489.377624 9628.431791 9904.032546 12940.319227 11614.143932 6337.599692 16889.576001 13047.859585 6706.710283 8553.845114 24454.862744 10513.351049 10012.646387 7113.775044 6610.948378 10961.947199 19632.511442 18760.952038 8351.335044 6424.982052 5843.359335 6234.166060 20367.471223 6342.111456 9172.070932 5413.699191 8976.105253 8852.778859 9752.080743 6660.349535 8067.980193 12268.903025 5699.332919 6338.080133 13668.762110 18388.027085 14306.071387 16506.562797 12983.917335 10833.861265 6626.349584 10958.957881 11184.816420 2206.063664 2206.339947 2206.563347 2206.746659 9307.872526 9329.683717 9379.288958 9499.392799 19122.157835 6352.832361 5983.250757 8301.206103 11732.731730 9749.089134 19259.647193 16872.326953 9715.622691 8987.388029 7021.588252 12065.205900 6563.304327 13910.321292 16494.701714 15290.562193 10750.459997 3613.651587 20558.253516 38020.393840 9611.617324 8364.090641 13911.198932 17207.926759 5867.832359 7011.750055 11032.896145 6301.448892 11040.517038 19850.466634 6195.575210 9624.642332 9797.594047 9190.011428 12386.337542 10925.131761 11274.165688 21341.998031 13137.895544 11853.252632 2092.148766 2092.424188 2092.646949 2092.829713 9164.500120 9161.651568 9137.205962 9074.845012 6146.171267 11361.496285 12895.786031 7650.620803 15434.399470 8889.066157 12515.616718 8889.271256 9733.872121 10101.590263 9101.847696 6724.301897 23558.599541 6182.679160 6099.899868 10741.253348 9849.516081 9035.002740 7276.537834 18037.354036 13386.934511 8351.979437 16902.396873 16063.652102 10592.385834 8963.919909 11813.517828 15492.247783 9054.843172 12761.970679 9957.555653 10804.467917 5858.357910 6364.564706 53789.352156 6970.942781 19892.598558 10480.347749 18401.891823 18641.491316 1980.608469 1980.882427 1981.104026 1981.285825 9043.785310 9030.349016 8992.518415 8945.016890 14976.903009 10639.143464 15785.142210 6097.097371 7889.975826 9248.494281 25693.423858 7466.429664 8439.343797 5996.543972 5811.793129 7170.036782 7684.281469 11464.638224 8780.800474 7309.513032 6434.873060 9584.216061 7082.439599 24580.560662 10033.999846 11060.706657 9898.997948 9674.407992 6459.623220 9851.387175 9117.155647 8206.770343 9923.835000 6836.398142 8937.075216 6757.062599 17268.407046 7560.544322 9202.907180 6233.743388 6186.628837 15986.448639 10011.287735 22151.685927 1871.419736 1871.691676 1871.911653 1872.092114 8959.795798 8943.953476 8896.935796 8798.587503 7655.370074 6579.730665 8612.877989 33810.707378 6427.925273 6800.210276 18495.035582 8897.839233 17812.249343 -9511.760391 7137.878880 9540.751806 8517.402369 18318.961003 5727.507747 61792.249523 7699.601584 6228.948932 8594.084519 15898.473681 17056.318857 66082.229836 5706.854964 8697.258781 8733.782557 6035.810277 6996.326094 5883.888504 7034.599042 9857.435354 8474.743608 16482.587440 9624.791849 6794.400555 20529.342869 9033.343660 10735.868585 8553.052043 10200.656542 14349.859174 1764.555788 1764.825195 1765.043126 1765.221903 8913.335695 8905.851583 8878.715593 8842.347785 8681.418518 9668.424423 6165.674088 11218.734354 5375.530783 9170.206652 6194.080110 8099.166685 7532.825610 8933.473453 6292.536883 8928.169145 9762.735041 6189.240712 8029.175688 7029.341588 10135.459764 9965.447196 9883.912959 18129.842217 6427.164937 20807.848502 11988.267371 15999.626028 8370.632647 7556.104365 10089.555016 9843.567826 10053.602558 5968.792651 9144.332605 9415.389215 8854.440938 10067.198224 7918.832469 7179.105149 9062.339145 6611.467752 10851.112095 6595.659650 1659.986288 1660.252676 1660.468163 1660.644933 8893.412761 8899.813040 8913.503959 8926.132550 1557.677529 1557.940437 1558.153107 1558.327564 8883.218055 8897.365852 8887.766170 8843.393125 1457.592628 1457.851620 1458.061123 1458.232977 8864.467087 8886.636812 8832.730885 8621.289503 1359.691728 1359.946396 1360.152400 1360.321382 8806.589596 8826.491721 8680.254901 8197.859031 1263.932206 1264.182170 1264.384368 1264.550225 8688.982515 8707.126206 8625.689149 8351.979603 1170.268898 1170.513806 1170.711914 1170.874415 8527.521505 8541.088489 8516.696213 8360.056601 1078.654326 1078.893858 1079.087618 1079.246550 8352.555218 8376.337532 8409.914719 8421.450183 989.038945 989.272815 989.461995 989.617168 8171.488748 8204.472831 8315.333202 8572.091676 901.371411 901.599368 901.783765 901.935015 7986.126981 7995.361571 7995.935753 7987.026430 815.598860 815.820691 816.000135 816.147321 7815.884985 7814.570229 7786.075273 7728.049676 731.667216 731.882752 732.057106 732.200118 7668.936456 7672.927489 7686.873970 7702.188309 649.521524 649.730642 649.899806 650.038563 7539.189448 7539.669522 7535.266598 7533.311554 569.106307 569.308931 569.472847 569.607301 7427.880480 7424.700864 7409.260278 7374.725520 490.365950 490.562060 490.720712 490.850850 7337.781700 7335.611441 7322.353191 7288.727790 413.245121 413.434753 413.588171 413.714019 7266.477940 7268.145053 7274.282575 7301.341918 337.689213 337.872465 338.020729 338.142354 7208.239617 7210.467660 7209.785588 7216.409928 263.644824 263.821860 263.965103 264.082616 7157.076507 7164.029838 7175.486370 7202.578030 191.060262 191.231315 191.369727 191.483284 7102.777560 7116.248835 7152.896106 7244.010678 119.886080 120.051457 120.185287 120.295093 7037.375812 7043.811843 7081.223867 7169.409665 50.075640 50.235721 50.365280 50.471590 6967.608567 6951.624750 6879.613639 6725.158985 -18.414314 -18.259066 -18.133406 -18.030283 6911.738043 6902.094331 6873.935133 6780.006251 -85.623047 -85.472091 -85.349889 -85.249593 6869.046717 6869.170229 6889.299523 6941.560466 -151.585228 -151.437940 -151.318692 -151.220806 6835.628916 6835.290539 6831.270258 6880.229436 -216.330311 -216.185986 -216.069121 -215.973177 6815.821695 6817.071576 6836.317882 6841.848958 -279.881927 -279.739779 -279.624659 -279.530134 6813.544783 6804.841388 6783.992396 6838.339804 -342.257276 -342.116440 -342.002366 -341.908684 6839.194275 6830.539236 6771.262999 6624.328223 -403.466555 -403.326091 -403.212301 -403.118838 6889.818680 6912.695208 6948.639513 6962.907845 -463.512402 -463.371299 -463.256977 -463.163062 6933.911430 6991.443366 7129.206434 7230.439285 -522.389395 -522.246579 -522.130855 -522.035775 6935.238975 7001.931765 7183.969535 7354.870493 -580.083599 -579.937939 -579.819898 -579.722903 6879.782130 6924.933381 7017.451899 7160.695134 -636.572172 -636.422490 -636.301182 -636.201490 6782.256097 6803.489185 6865.095894 6919.326448 -691.823058 -691.668141 -691.542582 -691.439390 6664.061537 6654.873854 6582.933151 6415.744687 -745.794754 -745.633362 -745.502554 -745.395040 6552.472311 6546.073339 6569.802303 6599.464970 -798.436177 -798.267061 -798.129993 -798.017331 6454.565650 6437.023449 6363.332063 6276.577430 -849.686634 -849.508548 -849.364212 -849.245577 6381.227448 6382.808527 6422.524682 6521.735722 -899.475899 -899.287613 -899.135018 -899.009597 6325.195978 6322.815179 6315.240415 6345.698467 -947.724406 -947.524725 -947.362906 -947.229908 6292.175000 6293.605524 6294.077579 6253.537043 -994.343561 -994.131339 -993.959370 -993.818038 6282.347730 6290.439237 6322.337202 6399.819588 -1039.236168 -1039.010323 -1038.827332 -1038.676952 6292.369290 6298.779135 6322.541657 6383.619029 -1082.296979 -1082.056510 -1081.861689 -1081.701599 6323.614183 6324.307343 6318.794473 6344.913036 -1123.413345 -1123.157346 -1122.949964 -1122.779568 6380.124328 6379.388110 6373.985930 6330.480947 -1162.465988 -1162.193660 -1161.973075 -1161.791847 6461.774644 6466.148040 6459.439188 6434.187487 -1199.329854 -1199.040523 -1198.806189 -1198.613685 6564.501043 6575.616546 6640.085063 6787.549184 -1233.875068 -1233.568188 -1233.319667 -1233.115528 6688.060053 6681.778861 6625.344734 6493.286899 -1265.967943 -1265.643110 -1265.380077 -1265.164038 6845.634904 6855.378243 6878.766089 6911.073690 -1295.472058 -1295.129016 -1294.851264 -1294.623158 7028.182591 7050.845184 7114.454366 7190.504697 -1322.249368 -1321.888010 -1321.595456 -1321.355215 7222.921630 7249.590889 7286.304731 7296.380863 -1346.161336 -1345.781709 -1345.474392 -1345.222049 7422.472079 7464.130066 7579.512808 7730.503527 -1367.070060 -1366.672362 -1366.350441 -1366.086130 7613.275928 7651.740736 7718.045310 7769.404065 -1384.839383 -1384.423959 -1384.087714 -1383.811665 7797.375213 7835.966615 7962.191872 8230.771031 -1399.335958 -1398.903294 -1398.553119 -1398.265655 7985.258306 7997.864753 7982.753777 7943.601792 -1410.430258 -1409.980971 -1409.617365 -1409.318896 8203.945377 8224.070048 8256.526353 8332.361732 -1417.997496 -1417.532322 -1417.155880 -1416.846895 8458.084766 8490.097473 8548.716957 8619.288357 -1421.918454 -1421.438236 -1421.049639 -1420.730695 8747.285596 8789.896599 8884.234763 9012.996728 -1422.080200 -1421.585870 -1421.185871 -1420.857585 9074.869446 9125.732374 9209.229192 9294.275221 -1418.376675 -1417.869237 -1417.458647 -1417.121684 9441.973377 9530.784217 9685.454055 9794.501622 -1410.709144 -1410.189657 -1409.769329 -1409.424389 9818.844423 9966.352878 10347.953372 10918.090816 -1398.986510 -1398.456066 -1398.026882 -1397.674687 10156.437841 10300.618198 10666.446765 11278.540398 -1383.125477 -1382.585184 -1382.148039 -1381.789321 10447.567752 10533.521494 10698.001094 10876.870723 -1363.050572 -1362.501533 -1362.057316 -1361.692804 10724.678843 10757.481957 10790.569044 10813.912051 -1338.694021 -1338.137316 -1337.686902 -1337.317310 11015.180720 11019.075986 11017.133975 11109.141240 -1309.995499 -1309.432171 -1308.976399 -1308.602417 11325.207740 11318.552354 11271.758470 11235.793414 -1276.901755 -1276.332794 -1275.872464 -1275.494744 11645.817002 11658.776515 11727.185797 11899.146895 -1239.366137 -1238.792466 -1238.328325 -1237.947480 11957.686783 11963.693717 12013.955447 12206.634383 -1197.348024 -1196.770494 -1196.303236 -1195.919829 12278.514590 12253.567774 12140.568551 11994.502300 -1150.812194 -1150.231583 -1149.761848 -1149.376402 12659.425790 12642.050994 12481.871385 12013.802707 -1099.728143 -1099.145167 -1098.673564 -1098.286566 13119.717893 13169.738929 13216.507838 13028.954457 -1044.069367 -1043.484714 -1043.011871 -1042.623813 13622.413775 13751.172460 14064.306441 14491.621125 -983.812603 -983.227021 -982.753713 -982.365172 14117.571624 14273.151896 14621.844472 15025.318754 -918.936988 -918.351488 -917.878943 -917.490790 14594.437517 14731.100350 15013.820232 15280.402445 -849.422993 -848.839336 -848.369953 -847.983831 15078.524261 15178.808686 15324.131371 15392.465120 -775.250751 -774.672602 -774.211673 -773.831142 15596.535722 15688.984413 15807.101647 15825.747722 -696.396875 -695.832545 -695.392346 -695.025598 16138.555431 16251.724958 16472.007216 16811.417419 -612.827486 -612.296517 -611.906081 -611.572389 16668.656200 16792.504651 16990.274441 17187.379200 -524.482021 -524.031094 -523.759545 -523.504474 17171.231422 17331.444900 17619.988750 17995.565902 -431.234439 -430.976426 -430.988716 -430.919486 17637.131923 17855.254526 18266.479254 18846.389428 -332.798169 -333.011151 -333.700926 -334.065855 18051.792635 18343.620151 18887.433204 19417.695719 -228.485047 -229.880531 -232.184056 -233.536769 18384.059080 18763.353019 19597.130106 20734.302990 -116.549825 -121.097026 -127.204504 -130.674429 18581.354382 18994.199306 19860.853015 21096.523452 7.829889 -6.158013 -20.836410 -28.263998 18623.856498 19037.766613 19918.797386 21287.352843 160.535288 111.342936 81.902236 68.762839 18531.778313 18902.714462 19711.886536 21089.529697 22135.512300 22336.541764 21875.426218 20897.403177 22168.420424 20596.380377 18908.188567 19891.971731 19372.024956 18277.829597 16465.317560 15797.481256 16245.584929 14944.414972 12875.456352 12019.304606 11074.629221 10212.066345 9217.586422 8294.998632 7740.061754 7238.331974 6764.196939 6337.734092 5950.563890 5595.533108 5266.804052 4959.721916 4670.608746 4396.570374 4135.333391 3885.113402 3644.510724 3412.428498 3188.008492 2970.580674 2759.623478 2554.732367 2355.594840 2161.970312 1973.673401 1790.558843 1612.505170 1439.391355 1271.053223 1107.187136 947.114925 789.152695 628.651615 450.482072 299.660309 216.679421 172.266162 153.664843 18367.988031 18661.892417 19247.804524 20116.972129 20836.692617 21157.005673 21081.465706 20292.964029 20189.560395 19625.289582 18895.359793 18537.454730 17940.928663 17052.308338 16112.598845 15333.208737 14653.682641 13763.524048 12731.064057 11757.909401 10842.021043 9979.227754 9166.490327 8431.701387 7798.292468 7254.427413 6775.625740 6346.505778 5957.501118 5601.096458 5271.314911 4963.419726 4673.675826 4399.146897 4137.527850 3887.010258 3646.176057 3413.914210 3189.355464 2971.821170 2760.783016 2555.831228 2356.649387 2162.994339 1974.679952 1791.563439 1613.532648 1440.491665 1272.339500 1108.931591 950.008360 795.104536 643.799651 499.866211 377.659576 292.299533 241.718128 220.003652 18220.803584 18447.527616 18857.073725 19364.456090 19792.326361 19974.778439 19941.493884 19726.160664 19413.655348 18985.564199 18485.392054 17948.240009 17308.989075 16547.234983 15737.342891 14951.685908 14173.636347 13339.365180 12449.709168 11558.719329 10699.400557 9883.969071 9122.335301 8428.197023 7811.021949 7267.393740 6785.807532 6354.485506 5963.812368 5606.141795 5275.391897 4966.751251 4676.430754 4401.454328 4139.487247 3888.698777 3647.653898 3415.228566 3190.543462 2972.912104 2761.800085 2556.792971 2357.570993 2163.889157 1975.561803 1792.451117 1614.459832 1441.529877 1273.652174 1110.901922 953.539232 802.291734 659.144165 528.843893 419.374640 337.841081 286.496477 263.752486 18159.205272 18359.384563 18693.029055 19088.063007 19425.035383 19606.742253 19603.521108 19437.686594 19145.267387 18746.858306 18265.496649 17711.968493 17071.186882 16345.291905 15572.772950 14791.211129 14001.184900 13181.811407 12332.431125 11477.899159 10644.743576 9850.881784 9109.183917 8430.356254 7820.448628 7277.858498 6794.912367 6361.910796 5969.793252 5610.966030 5279.306807 4969.954986 4679.079125 4403.669157 4141.363690 3890.311249 3649.060729 3416.475593 3191.666789 2973.940225 2762.755546 2557.693717 2358.431557 2164.721905 1976.378668 1793.266734 1615.298199 1442.439393 1274.739948 1112.409831 955.998772 806.770547 667.330485 542.200947 437.332265 358.004424 307.047552 284.178197
</DataArray>
<DataArray type="Float64" Name="Velocity" NumberOfComponents="3" format="ascii">