<VTKFile type="PolyData">
<PolyData>
<Piece NumberOfPoints="2064" NumberOfVerts="2064" NumberOfLines="0" NumberOfStrips="0" NumberOfPolys="0">
<PointData>
<DataArray type="Float64" Name="Pressure" format="ascii">
 292.880381 345.369188 417.530081 475.820021 482.279488 429.194185 341.221704 248.302266 168.701706 108.585786 66.990140 40.076898 23.596832 13.972560 8.583607 5.679060 4.167491 3.406032 3.033930 2.857213 2.775515 2.738694 2.722493 2.715525 2.712590 2.711369 2.710835 2.710481 2.709873 2.708141 2.702932 2.687845 2.646320 2.538094 2.271434 1.650815 0.287047 -2.541063 -8.066470 -18.179060 -35.233796 -60.678428 -91.361970 -115.713942 -119.360013 -101.148747 -73.673561 -48.408072 -29.675885 -17.298423 -9.685638 -5.237791 -2.742894 -1.391823 -0.685013 -0.330281 -0.165309 -0.106452 400.470128 479.939541 604.657647 713.087102 723.934601 626.824496 482.592544 342.872394 229.588637 146.780128 90.525911 54.468154 32.468421 19.618926 12.404976 8.499811 6.456233 5.420218 4.910438 4.666562 4.552960 4.501363 4.478482 4.468564 4.464350 4.462578 4.461779 4.461210 4.460197 4.457425 4.449508 4.427688 4.370398 4.227506 3.889386 3.130617 1.515049 -1.753519 -8.053871 -19.666092 -40.154144 -74.051219 -122.047871 -166.171625 -170.827355 -134.905328 -90.961012 -56.751989 -33.826768 -19.451716 -10.833134 -5.853846 -3.068145 -1.555185 -0.761740 -0.365402 -0.182815 -0.117991 599.955894 751.011341 1026.607601 1297.190323 1314.385608 1074.103969 784.531001 539.649388 354.545359 224.657300 138.479863 83.944112 50.870763 31.584650 20.742226 14.852716 11.755709 10.176379 9.394096 9.017170 8.840264 8.759282 8.723082 8.707260 8.700478 8.697588 8.696243 8.695213 8.693359 8.688529 8.675518 8.641678 8.557633 8.358859 7.911593 6.954151 5.002243 1.201341 -5.915988 -18.925825 -42.897668 -89.846814 -181.822525 -290.353599 -295.972940 -200.930723 -116.875303 -67.825527 -39.007730 -22.010101 -12.143751 -6.535665 -3.410951 -1.701539 -0.806862 -0.377212 -0.186947 -0.120667 879.372052 1150.605972 1712.820539 2313.273541 2279.502345 1716.212596 1200.897502 810.495075 527.782031 333.372037 205.678380 125.129270 76.239130 47.632743 31.468241 22.632717 17.953721 15.549498 14.349116 13.765969 13.489969 13.362546 13.305094 13.279761 13.268803 13.264072 13.261803 13.259973 13.256679 13.248455 13.227373 13.175226 13.052063 12.774987 12.181770 10.973201 8.628460 4.286559 -3.433524 -16.802036 -40.390249 -89.683671 -208.156635 -383.534674 -392.473663 -228.535410 -132.201918 -76.096658 -43.288048 -24.276837 -13.372776 -7.205158 -3.749038 -1.745816 -0.736998 -0.336737 -0.169050 -0.110963 1186.348700 1586.904552 2456.157802 3372.028544 3219.390758 2304.256615 1595.580368 1079.763134 704.378332 445.833497 274.939901 166.183077 99.522742 60.113224 37.605941 25.170301 18.513410 15.055947 13.311204 12.454611 12.044932 11.853830 11.766781 11.728009 11.711068 11.703688 11.700152 11.697414 11.692787 11.681717 11.654292 11.588651 11.438690 11.112577 10.438184 9.112478 6.634777 2.226354 -5.271191 -17.512468 -36.546660 -65.129616 -107.989449 -165.459896 -0.420345 -0.229630 -0.128365 -0.089153 1459.183377 1943.570313 2974.701068 4011.982422 3768.684446 2667.894557 1859.103553 1262.353298 825.682413 523.645785 322.554765 193.551300 113.828866 66.300719 38.927008 23.674603 15.440999 11.128703 8.934392 7.848117 7.324285 7.077917 6.964772 6.913962 6.891580 6.881757 6.877048 6.873517 6.867856 6.854805 6.823408 6.750348 6.588159 6.245736 5.559110 4.252641 1.895624 -2.134226 -8.668437 -18.696691 -32.852236 -50.418518 -70.715641 -89.505135 -0.166705 -0.125763 -0.082409 -0.062441 1667.410923 2194.389219 3292.805271 4377.932947 4121.173935 2953.499408 2072.672757 1412.605397 927.734064 590.478038 364.487111 218.576560 127.812227 73.336906 41.747681 24.024828 14.390868 9.309626 6.705691 5.407414 4.776840 4.478117 4.339926 4.277413 4.249678 4.237439 4.231614 4.227479 4.221329 4.207745 4.175974 4.103924 3.948096 3.627950 3.004365 1.854905 -0.145565 -3.420963 -8.436296 -15.516449 -24.329840 -33.363644 -41.750900 -49.155245 -0.071866 -0.061946 -0.047035 -0.038951 1811.948182 2360.549750 3492.163871 4606.230140 4352.356890 3153.514941 2228.914839 1527.093497 1007.841834 644.124727 398.868964 239.593624 139.942280 79.786359 44.699370 24.897835 14.069448 8.323509 5.360764 3.874332 3.147775 2.801360 2.640057 2.566607 2.533812 2.519278 2.512436 2.507893 2.501752 2.488860 2.459574 2.394796 2.258152 1.984678 1.466790 0.541394 -1.012800 -3.451339 -6.988378 -11.627603 -16.822136 -21.290049 -24.519395 -27.377915 -0.032017 -0.029746 -0.025032 -0.022289 1906.417952 2466.644434 3616.237959 4748.048698 4498.658772 3285.269989 2336.704268 1609.244195 1067.051158 684.769423 425.529375 256.289911 149.866650 85.300200 47.451175 25.982139 14.181132 7.886047 4.622663 2.976386 2.167174 1.779132 1.597388 1.514140 1.476757 1.460133 1.452400 1.447622 1.441863 1.430508 1.405515 1.351591 1.240586 1.024018 0.624975 -0.066858 -1.189582 -2.881283 -5.216274 -8.091959 -11.055315 -13.289737 -14.568519 -15.688278 -0.014506 -0.014136 -0.012780 -0.011997 1965.595732 2532.402627 3692.274816 4835.159309 4589.845255 3369.832727 2408.241582 1665.482439 1108.709556 714.084429 445.210648 268.908282 157.570197 89.736611 49.803627 27.054926 14.495483 7.765584 4.260612 2.484026 1.606475 1.183540 0.984426 0.892741 0.851360 0.832905 0.824417 0.819535 0.814373 0.804964 0.784985 0.742954 0.658480 0.497694 0.209128 -0.277033 -1.041156 -2.151089 -3.618159 -5.332013 -6.982929 -8.100789 -8.611654 -9.070380 -0.006620 -0.006670 -0.006343 -0.006182 2001.450420 2572.092577 3737.991906 4887.775216 4645.579965 3422.603349 2454.003602 1702.396062 1136.743306 734.280605 459.076653 277.999397 163.256743 93.110809 51.673919 27.984988 14.858792 7.798698 4.107400 2.228794 1.296952 0.845897 0.632589 0.533915 0.489181 0.469179 0.460070 0.455164 0.450671 0.443252 0.428155 0.397218 0.336482 0.223594 0.025984 -0.298159 -0.793009 -1.488959 -2.375816 -3.368690 -4.276009 -4.839440 -5.044799 -5.240142 -0.003026 -0.003125 -0.003082 -0.003084 2022.555915 2595.447012 3764.880008 4918.862521 4678.811310 3454.557836 2482.258463 1725.682145 1154.818631 747.585839 468.407001 284.248637 167.255193 95.546611 53.072661 28.723015 15.191378 7.891010 4.061889 2.106613 1.133337 0.660497 0.436031 0.331784 0.284341 0.263079 0.253474 0.248585 0.244724 0.239092 0.228222 0.206566 0.165025 0.089545 -0.039528 -0.246109 -0.553353 -0.973498 -1.492802 -2.054813 -2.548222 -2.835244 -2.919814 -3.006832 -0.001381 -0.001453 -0.001471 -0.001501 2034.614085 2608.794354 3780.229235 4936.626512 4697.889122 3473.091913 2498.888394 1739.629804 1165.854203 755.873029 474.338857 288.306441 169.910019 97.204632 54.054494 29.264959 15.457946 7.991230 4.064915 2.054602 1.051070 0.562056 0.329171 0.220655 0.171107 0.148856 0.138863 0.134006 0.130680 0.126509 0.118994 0.104491 0.077305 0.028965 -0.051919 -0.178510 -0.362470 -0.608024 -0.903954 -1.215736 -1.481355 -1.628835 -1.665214 -1.706176 -0.000628 -0.000670 -0.000692 -0.000716 2041.167254 2616.014089 3788.427049 4945.959352 4707.811628 3482.723287 2507.600333 1747.044398 1171.835322 760.467546 477.710619 290.674934 171.503318 98.229510 54.681695 29.625642 15.646980 8.073745 4.083593 2.036257 1.011908 0.511527 0.272606 0.160970 0.109858 0.086860 0.076575 0.071749 0.068840 0.065778 0.060747 0.051401 0.034294 0.004496 -0.044367 -0.119308 -0.226004 -0.365508 -0.530160 -0.700008 -0.841554 -0.917790 -0.934456 -0.954863 -0.000284 -0.000306 -0.000321 -0.000335 2044.153606 2619.182719 3791.725937 4949.249381 4710.934946 3485.550227 2510.122942 1749.257225 1173.730191 762.038809 478.963717 291.631327 172.199465 98.711242 54.997106 29.819111 15.755584 8.126052 4.100163 2.031044 0.993904 0.486269 0.243366 0.129610 0.077407 0.053878 0.043382 0.038580 0.035975 0.033706 0.030409 0.024581 0.014184 -0.003568 -0.032138 -0.075162 -0.135321 -0.212598 -0.302251 -0.393221 -0.467857 -0.507386 -0.515599 -0.526278 -0.000127 -0.000139 -0.000147 -0.000155 2044.166523 2618.844361 3790.513733 4946.604063 4707.113796 3481.283326 2506.147537 1746.014739 1171.366720 760.490074 478.055705 291.164625 172.001168 98.655296 55.003654 29.844105 15.778532 8.139869 4.104261 2.027295 0.984632 0.473437 0.228384 0.113398 0.060523 0.036654 0.026020 0.021237 0.018843 0.017112 0.014967 0.011427 0.005297 -0.004960 -0.021183 -0.045212 -0.078280 -0.120120 -0.167977 -0.215921 -0.254842 -0.275337 -0.279660 -0.285447 -0.000057 -0.000062 -0.000067 -0.000071 2040.332777 2613.837553 3783.036166 4935.427141 4693.184325 3466.726219 2492.878609 1735.130164 1163.184430 754.792698 474.354409 288.909831 170.708977 97.957475 54.648311 29.673289 15.700509 8.105073 4.087786 2.017583 0.976820 0.465750 0.220338 0.104974 0.051825 0.027793 0.017090 0.012327 0.010074 0.008692 0.007282 0.005168 0.001648 -0.004120 -0.013092 -0.026182 -0.043944 -0.066128 -0.091208 -0.116088 -0.136153 -0.146748 -0.149130 -0.152327 -0.000025 -0.000028 -0.000030 -0.000032 2029.739797 2600.597100 3764.469980 4909.236957 4661.691105 3434.643104 2464.164057 1711.888748 1145.864468 742.772309 466.520297 284.084650 167.886996 96.384705 53.810676 29.245929 15.490987 8.005770 4.041631 1.995810 0.965639 0.458888 0.215098 0.100272 0.047266 0.023254 0.012553 0.007820 0.005662 0.004500 0.003539 0.002284 0.000303 -0.002864 -0.007708 -0.014679 -0.024021 -0.035558 -0.048476 -0.061197 -0.071420 -0.076867 -0.078209 -0.079985 -0.000011 -0.000012 -0.000013 -0.000014 2006.417395 2571.891291 3725.240101 4855.640870 4598.902759 3372.209703 2409.466954 1668.452999 1114.027838 720.974841 452.454794 275.472163 162.857495 93.572817 52.301205 28.466024 15.102301 7.818427 3.953916 1.955536 0.947109 0.449942 0.210206 0.097019 0.044642 0.020861 0.010246 0.005562 0.003474 0.002448 0.001756 0.001000 -0.000101 -0.001804 -0.004365 -0.008001 -0.012819 -0.018713 -0.025260 -0.031671 -0.036818 -0.039598 -0.040357 -0.041339 -0.000005 -0.000005 -0.000006 -0.000006 1960.145014 2515.155768 3648.428595 4752.766860 4480.918047 3257.813557 2311.835256 1592.836655 1059.802326 684.513430 429.257913 261.413733 154.701336 89.026753 49.860194 27.200637 14.467873 7.510257 3.808591 1.888783 0.917036 0.436447 0.203964 0.093847 0.042727 0.019442 0.009022 0.004424 0.002398 0.001459 0.000923 0.000450 -0.000161 -0.001063 -0.002392 -0.004253 -0.006694 -0.009655 -0.012922 -0.016109 -0.018670 -0.020077 -0.020503 -0.021040 -0.000002 -0.000002 -0.000003 -0.000003 1875.969392 2411.197218 3506.046214 4560.958433 4261.676731 3049.306325 2139.393209 1463.878722 970.141288 625.677586 392.501650 239.423067 142.050081 82.007766 46.096546 25.246776 13.484399 7.029658 3.580286 1.783186 0.869362 0.415330 0.194681 0.089690 0.040729 0.018330 0.008265 0.003813 0.001859 0.000983 0.000539 0.000224 -0.000121 -0.000595 -0.001273 -0.002210 -0.003427 -0.004891 -0.006498 -0.008062 -0.009321 -0.010026 -0.010262 -0.010554 -0.000001 -0.000001 -0.000001 -0.000001 1736.245832 2235.430069 3258.221838 4223.156685 3882.060375 2699.779058 1859.769968 1261.834410 834.174927 538.742193 339.210987 207.960492 124.107970 72.105359 40.799411 22.496927 12.097609 6.349564 3.255659 1.632222 0.800882 0.384969 0.181471 0.083998 0.038247 0.017184 0.007663 0.003430 0.001571 0.000750 0.000364 0.000136 -0.000067 -0.000318 -0.000661 -0.001126 -0.001724 -0.002438 -0.003219 -0.003977 -0.004590 -0.004941 -0.005074 -0.005237 -0.000000 -0.000000 -0.000000 -0.000001 1527.498987 1965.011719 2869.379606 3727.019292 3403.959963 2311.874013 1565.998900 1056.251854 698.916573 453.721743 287.785280 177.946630 107.174900 62.859457 35.909219 19.990016 10.851416 5.748692 2.974626 1.504743 0.744820 0.361076 0.171600 0.080032 0.036677 0.016548 0.007374 0.003265 0.001450 0.000653 0.000293 0.000107 -0.000026 -0.000166 -0.000345 -0.000581 -0.000881 -0.001237 -0.001624 -0.002000 -0.002307 -0.002492 -0.002579 -0.002690 -0.000000 -0.000000 -0.000000 -0.000000 1252.909282 1593.688344 2307.769221 3080.382519 2999.980298 2113.489571 1454.301155 983.413506 652.781093 425.686790 271.592308 169.134913 102.687500 60.749950 35.020756 19.679616 10.786386 5.770587 3.015782 1.540938 0.770465 0.377298 0.181120 0.085312 0.039470 0.017962 0.008057 0.003575 0.001578 0.000697 0.000304 0.000114 -0.000002 -0.000105 -0.000226 -0.000380 -0.000573 -0.000800 -0.001048 -0.001289 -0.001490 -0.001622 -0.001706 -0.001814 -0.000000 -0.000000 -0.000000 -0.000000 944.569102 1161.773598 1583.072370 2061.790828 -0.000000 -0.000000 -0.000000 -0.000000 656.162403 771.557739 959.412404 1124.522482 -0.000000 -0.000000 -0.000000 -0.000000 426.559827 483.681527 564.829503 627.766938 -0.000000 -0.000000 -0.000000 -0.000000 263.687534 291.666803 327.552035 354.599225 -0.000000 -0.000000 -0.000000 -0.000000 156.824161 170.810887 187.275719 199.730977 -0.000000 -0.000000 -0.000000 -0.000000 90.426228 97.616318 105.475732 111.526158 -0.000000 -0.000000 -0.000000 -0.000000 50.804188 54.588811 58.477436 61.535668 -0.000000 -0.000000 -0.000000 -0.000000 27.904338 29.926174 31.904694 33.492919 -0.000000 -0.000000 -0.000000 -0.000000 15.018286 16.104722 17.130069 17.967841 -0.000000 -0.000000 -0.000000 -0.000000 7.933973 8.516948 9.053285 9.497921 -0.000000 -0.000000 -0.000000 -0.000000 4.119676 4.430452 4.711515 4.947270 -0.000000 -0.000000 -0.000000 -0.000000 2.104800 2.268837 2.415585 2.539849 -0.000000 -0.000000 -0.000000 -0.000000 1.059096 1.144654 1.220705 1.285605 -0.000000 -0.000000 -0.000000 -0.000000 0.525276 0.569324 0.608349 0.641870 -0.000000 -0.000000 -0.000000 -0.000000 0.256969 0.279342 0.299143 0.316245 -0.000000 -0.000000 -0.000000 -0.000000 0.124079 0.135290 0.145215 0.153831 -0.000000 -0.000000 -0.000000 -0.000000 0.059170 0.064713 0.069627 0.073911 -0.000000 -0.000000 -0.000000 -0.000000 0.027883 0.030587 0.032990 0.035093 -0.000000 -0.000000 -0.000000 -0.000000 0.012991 0.014294 0.015454 0.016474 -0.000000 -0.000000 -0.000000 -0.000000 0.005987 0.006607 0.007161 0.007649 -0.000000 -0.000000 -0.000000 -0.000000 0.002730 0.003022 0.003283 0.003514 -0.000000 -0.000000 -0.000000 -0.000000 0.001233 0.001368 0.001490 0.001598 0.000000 0.000000 0.000000 0.000000 0.000551 0.000614 0.000670 0.000720 0.000000 0.000000 0.000000 0.000000 0.000244 0.000273 0.000298 0.000321 0.000000 0.000000 0.000000 0.000000 0.000107 0.000120 0.000132 0.000142 0.000000 0.000000 0.000000 0.000000 0.000047 0.000052 0.000058 0.000062 0.000000 0.000000 0.000000 0.000000 0.000020 0.000023 0.000025 0.000027 0.000000 0.000000 0.000000 0.000000 0.000009 0.000010 0.000011 0.000012 0.000000 0.000000 0.000000 0.000000 0.000004 0.000004 0.000005 0.000005 0.000000 0.000000 0.000000 0.000000 0.000002 0.000002 0.000002 0.000002 0.000000 0.000000 0.000000 0.000000 0.000001 0.000001 0.000001 0.000001 0.000000 0.000000 0.000000 0.000000 0.000000 0.000000 0.000000 0.000000 0.000000 0.000000 0.000000 0.000000 0.000000 0.000000 0.000000 0.000000 0.000000 0.000000 0.000000 0.000000 0.000000 0.000000 0.000000 0.000000 0.000000 0.000000 0.000000 0.000000 0.000000 0.000000 0.000000 0.000000 0.000000 0.000000 0.000000 0.000000 0.000000 0.000000 0.000000 0.000000 0.000000 0.000000 0.000000 0.000000 0.000000 0.000000 0.000000 0.000000 0.000000 0.000000 0.000000 0.000000 0.000000 0.000000 0.000000 0.000000 0.000000 0.000000 0.000000 0.000000 0.000000 0.000000 0.000000 0.000000 0.000000 0.000000 0.000000 0.000000 0.000000 0.000000 0.000000 0.000000 0.000000 0.000000 0.000000 0.000000 0.000000 0.000000 0.000000 0.000000 0.000000 0.000000 0.000000 0.000000 0.000000 0.000000 0.000000 0.000000 0.000000 0.000000 0.000000 0.000000 0.000000 0.000000 0.000000 0.000000 0.000000 0.000000 0.000000 0.000000 0.000000 0.000000 0.000000 0.000000 0.000000 0.000000 0.000000 0.000000 0.000000 0.000000 0.000000 0.000000 0.000000 0.000000 0.000000 0.000000 0.000000 0.000000 0.000000 0.000000 0.000000 0.000000 0.000000 0.000000 0.000000 0.000000 0.000000 0.000000 0.000000 0.000000 0.000000 0.000000 0.000000 0.000000 0.000000 0.000000 0.000000 0.000000 0.000000 0.000000 0.000000 0.000000 0.000000 0.000000 0.000000 0.000000 0.000000 0.000000 0.000000 0.000000 0.000000 0.000000 0.000000 0.000000 0.000000 0.000000 0.000000 0.000000 0.000000 0.000000 0.000000 0.000000 0.000000 0.000000 0.000000 0.000000 0.000000 0.000000 0.000000 0.000000 0.000000 0.000000 0.000000 0.000000 0.000000 0.000000 0.000000 0.000000 0.000000 0.000000 0.000000 0.000000 0.000000 0.000000 0.000000 0.000000 0.000000 0.000000 0.000000 0.000000 0.000000 0.000000 0.000000 0.000000 0.000000 0.000000 0.000000 0.000000 0.000000 0.000000 0.000000 0.000000 0.000000 0.000000 0.000000 0.000000 0.000000 0.000000 0.000000 0.000000 0.000000 0.000000 0.000000 0.000000 0.000000 0.000000 0.000000 0.000000 0.000000 0.000000 0.000000 0.000000 0.000000 0.000000 0.000000 -0.000000 -0.000000 -0.000000 0.000000 0.000000 0.000000 0.000000 -0.000000 -0.000000 -0.000000 -0.000000 0.000000 0.000000 0.000000 0.000000 0.000000 0.000000 0.000000 0.000000 0.000000 0.000000 0.000000 0.000000 0.000000 0.000000 0.000000 0.000000 0.000000 0.000000 0.000000 0.000000 0.000000 0.000000 0.000000 0.000000 0.000000 0.000000 0.000000 0.000000 0.000000 0.000000 0.000000 0.000000 0.000000 0.000000 0.000000 0.000000 0.000000 0.000000 0.000000 0.000000 0.000000 0.000000 0.000000 0.000000 0.000000 0.000000 0.000000 0.000000 0.000000 0.000000 0.000000 0.000000 0.000000 0.000000 0.000000 0.000000 0.000000 0.000000 0.000000 0.000000 0.000000 0.000000 0.000000 0.000000 0.000000 0.000000 0.000000 0.000000 0.000000 0.000000 0.000000 0.000000 0.000000 0.000000 0.000000 0.000000 0.000000 0.000000 0.000000 0.000000 0.000000 0.000000 0.000000 0.000000 0.000000 0.000000 0.000000 0.000000 0.000000 0.000000 0.000000 0.000000 0.000000 0.000000 0.000000 0.000000 0.000000 0.000000 0.000000 0.000000 0.000000 0.000000 0.000000 0.000000 0.000000 0.000000 0.000000 0.000000 0.000000 0.000000 0.000000 0.000000 0.000000 0.000000 0.000000 0.000000 0.000000 0.000000 0.000000 0.000000 0.000000 0.000000 0.000000 0.000000 0.000000 0.000000 0.000000 0.000000 0.000000 0.000000 0.000000 0.000000 0.000000 0.000000 0.000000 0.000000 0.000000 0.000000 0.000000 0.000000 0.000000 0.000000 0.000000 0.000000 0.000000 0.000000 0.000000 0.000000 0.000000 0.000000 0.000000 0.000000 0.000000 0.000000 0.000000 0.000000 0.000000 0.000000 0.000000 0.000000 0.000000 0.000000 0.000000 0.000000 0.000000 0.000000 0.000000 0.000000 0.000000 0.000000 0.000000 0.000000 0.000000 -0.000000 -0.000000 -0.000000 -0.000000 -0.000000 -0.000000 -0.000000 -0.000000 -0.000000 -0.000000 -0.000000 -0.000000 -0.000000 -0.000000 -0.000000 -0.000000 -0.000000 -0.000000 -0.000000 -0.000000 -0.000000 -0.000000 -0.000000 -0.000000 -0.000000 -0.000000 -0.000000 -0.000000 -0.000000 -0.000000 -0.000000 -0.000000 -0.000000 0.000000 0.000000 0.000000 0.000000 0.000000 0.000000 0.000000 0.000000 0.000000 0.000000 0.000000 0.000000 0.000000 0.000000 0.000000 0.000000 0.000000 0.000000 0.000000 0.000000 0.000000 0.000000 0.000000 0.000000 0.000000 -0.000000 -0.000000 -0.000000 -0.000000 -0.000000 -0.000000 -0.000000 -0.000000 -0.000000 -0.000000 -0.000000 -0.000000 -0.000000 -0.000000 -0.000000 -0.000000 -0.000000 -0.000000 -0.000000 -0.000000 -0.000000 -0.000000 -0.000000 -0.000000 -0.000000 -0.000000 -0.000000 -0.000000 -0.000000 -0.000000 -0.000000 -0.000000 0.000000 0.000000 0.000000 0.000000 0.000000 0.000000 0.000000 0.000000 0.000000 0.000000 0.000000 0.000000 0.000000 0.000000 0.000000 0.000000 0.000000 0.000000 0.000000 0.000000 0.000000 0.000000 0.000000 0.000000 0.000000 0.000000 -0.000000 -0.000000 -0.000000 -0.000000 -0.000000 -0.000000 -0.000000 -0.000000 -0.000000 -0.000000 -0.000000 -0.000000 -0.000000 -0.000000 -0.000000 -0.000000 -0.000000 -0.000000 -0.000000 -0.000000 -0.000000 -0.000000 -0.000000 -0.000000 -0.000000 -0.000000 -0.000000 -0.000000 -0.000000 -0.000000 -0.000000 -0.000000 0.000000 0.000000 0.000000 0.000000 0.000000 0.000000 0.000000 0.000000 0.000000 0.000000 0.000000 0.000000 0.000000 0.000000 0.000000 0.000000 0.000000 0.000000 0.000000 0.000000 0.000000 0.000000 0.000000 0.000000 0.000000 0.000000 -0.000000 -0.000000 -0.000000 -0.000000 -0.000000 -0.000000 -0.000000 -0.000000 -0.000000 -0.000000 -0.000000 -0.000000 -0.000000 -0.000000 -0.000000 -0.000000 -0.000000 -0.000000 -0.000000 -0.000000 -0.000000 -0.000000 -0.000000 -0.000000 -0.000000 -0.000000 -0.000000 -0.000000 -0.000000 -0.000000 -0.000000 -0.000000 0.000000 0.000000 0.000000 0.000000 0.000000 0.000000 0.000000 0.000000 0.000000 0.000000 0.000000 0.000000 0.000000
</DataArray>
<DataArray type="Float64" Name="Velocity" NumberOfComponents="3" format="ascii">