<VTKFile type="PolyData">
<PolyData>
<Piece NumberOfPoints="2064" NumberOfVerts="2064" NumberOfLines="0" NumberOfStrips="0" NumberOfPolys="0">
<PointData>
<DataArray type="Float64" Name="Pressure" format="ascii">
 3390.440324 3374.808799 3338.403617 3275.435565 3184.457154 3075.843562 2972.507536 2899.016163 2873.589154 2915.849214 3060.824236 3359.927653 3850.812654 4488.331221 5070.462787 5287.208481 5011.660746 4529.620226 4212.833679 4096.764101 3991.093190 3761.109199 3404.959471 2989.513813 2582.917946 2226.588459 1934.668717 1703.563475 1521.708646 1376.200579 1256.269002 1153.960473 1062.286156 975.626227 892.986158 814.592939 739.819278 667.965909 598.625986 531.606686 466.819118 404.219536 343.784228 285.499622 229.358546 175.359024 123.504599 73.806728 26.291756 -18.981465 -61.880599 -102.113897 -139.086217 -171.770069 -198.829241 -219.112501 -232.048992 -237.797078 3402.975354 3391.601804 3362.061230 3303.709214 3206.891885 3080.953959 2961.204860 2884.879525 2870.556502 2931.964590 3101.324576 3427.850029 3938.024183 4553.364228 4987.355213 4797.107495 3918.253638 3145.708150 3079.279018 3394.075629 3619.435440 3582.473761 3329.834589 2967.253679 2585.161982 2237.950512 1947.460878 1714.546463 1530.068715 1382.766724 1265.018225 1172.468308 1088.164376 992.602841 900.281135 817.241585 740.932963 668.623240 599.148129 532.086540 467.284245 404.678749 344.240731 285.954697 229.812414 175.810558 123.949953 74.235954 26.680966 -18.687565 -61.804281 -102.500704 -140.321386 -174.175252 -202.243028 -222.964924 -235.934409 -241.631194 3432.557650 3430.570925 3419.702513 3380.627149 3274.179846 3095.454478 2925.232233 2841.010737 2849.638258 2941.824979 3139.076854 3494.491866 4027.683142 4625.730165 4883.295936 3849.393719 1415.001174 193.872246 1135.621703 2439.424760 3152.007811 3358.424798 3231.090743 2931.591690 2579.358283 2244.433567 1957.383166 1723.945663 1537.821170 1391.494952 1300.727701 1288.302588 1247.834170 1077.016235 922.112814 823.071698 742.825212 669.450178 599.673624 532.523432 467.693521 405.078506 344.636652 286.348562 230.204195 176.198215 124.327448 74.588091 26.971014 -18.547312 -62.021823 -103.560308 -143.262679 -180.234090 -211.110391 -232.521514 -245.166951 -250.560720 3477.880625 3489.342763 3511.709266 3528.529458 3424.984802 3161.327573 2900.581949 2775.996045 2834.427098 2958.804589 3170.325075 3542.998147 4084.066493 4658.708098 4846.482760 2965.572658 -3738.057394 -4300.782504 119.427126 1898.893442 2854.113751 3201.090744 3154.068776 2900.031507 2572.077807 2248.566118 1965.535760 1732.366920 1545.494553 1404.809003 1370.586477 1854.998675 1949.443883 1139.928607 938.685936 829.977065 745.413309 670.531689 600.266954 532.962618 468.083727 405.452491 345.004784 286.714181 230.568058 176.559292 124.681853 74.925644 27.266547 -18.356073 -62.094526 -104.340972 -146.190368 -191.196061 -228.411953 -248.810344 -259.765767 -264.333750 3534.689950 3553.816040 3599.883812 3673.459469 3564.035814 3541.307761 3583.917018 3966.236689 3478.373414 4991.781579 1668.210839 5641.713064 2231.605833 2062.536934 3698.802818 3120.008142 4308.867373 4238.400280 5212.697609 4466.055489 3866.270167 3212.879510 2437.503209 4387.517153 4936.248315 4244.751980 5053.561815 3477.117753 6057.544827 4313.327919 5039.080420 4389.011913 5151.489758 7150.438687 4243.545810 4168.558587 5499.312068 3407.435117 4492.366007 5103.851542 4285.179672 4040.750799 3462.378378 3553.275876 -259.771118 -271.601943 -278.767366 -281.951156 3600.146421 3609.234340 3599.404475 3595.099361 3597.191782 4346.260993 1852.403915 901.731327 4551.576828 4375.100496 3519.635415 12740.764073 1583.244845 6423.684682 2152.891111 4358.462005 5518.015865 219.953659 5762.781323 3530.871509 7153.711600 3972.648122 1821.559700 7964.505103 2158.897163 8405.437418 5903.967480 6728.877730 2624.304102 4700.809498 3063.469091 -1953.000479 3872.598946 7405.967813 5594.825652 3934.267402 5964.815832 9381.347945 3442.671799 4292.928223 17176.254017 16506.123155 9190.603925 51202.142876 -293.248872 -296.559377 -300.083427 -301.851322 3673.091668 3666.833321 3592.022058 3469.823440 4207.095966 3994.985095 5726.215927 2811.590362 2506.886298 5487.046502 5300.704741 4474.795381 2296.539488 4849.550411 4417.039426 3858.180645 1983.011723 -2617.943497 6090.304998 5268.637678 4665.411569 1693.606810 2806.833253 2719.328299 3608.426058 823.512018 -2501.929265 3231.770524 2550.380774 5216.169341 3348.562156 4169.346471 1617.568951 7495.508786 14163.587393 2924.509456 25369.541311 6196.484731 3840.382361 11619.381092 1047.311350 23777.926981 6456.826263 4386.335237 -319.178585 -320.207741 -321.639170 -322.438109 3745.108321 3734.085907 3639.364887 3474.125094 4357.102811 3794.805015 2446.668937 4332.712298 3721.171756 1479.169738 903.756134 4571.601429 6507.015499 6922.213280 3198.228740 4062.484216 5783.382281 5552.660515 1302.225351 4516.964102 7844.609721 2157.007310 3160.779860 2849.316595 2205.891903 2612.957173 1886.539815 5285.613770 3687.325031 4253.642095 18610.826107 1705.255288 1783.682130 2384.329692 -8619.938062 3625.251308 1537.900574 3150.456687 2081.231189 2480.362061 42.080827 1977.693857 1091.507977 4090.603314 -341.517132 -341.789321 -342.298577 -342.585228 3808.860014 3808.488348 3790.359936 3827.111474 3306.299811 5457.374916 3120.107158 13943.188302 -1103.433001 3031.144345 4447.891612 2558.187258 -2523.858465 6440.431920 4451.215591 5386.742921 3756.930062 4774.002083 2725.264170 -2787.506918 4209.721804 3132.818483 3702.053454 3268.071396 3089.381192 4969.057208 5307.282188 2094.037131 1864.990074 2916.387110 -2011.350554 3566.537884 6173.800814 12825.325754 5882.177676 2694.581069 1573.653104 1895.197259 1751.302999 5552.627612 -121.553333 -1560.425849 19380.069554 2263.919193 -361.532002 -361.527978 -361.652147 -361.704925 3870.566423 3872.564421 3833.038246 3745.242951 8178.593268 3285.230750 7479.799307 8053.930426 9495.743686 8691.260480 2714.532354 8418.954263 14084.704793 8723.907705 4142.320992 14196.863489 13442.706168 22077.802782 -748.704300 12093.321182 3167.474646 2480.219068 8698.326236 10642.317337 2215.965110 4811.956488 4625.621970 2790.100571 3905.296736 5861.322295 4711.905153 6558.131710 3863.516308 -7704.270265 1124.125651 2379.189218 5499.785905 21109.279940 4966.585884 2251.326462 1972.196878 4589.388351 253.219470 305.503423 -379.750672 -379.644978 -379.614002 -379.569266 3948.726313 3969.856040 4007.583978 4052.235682 10118.244726 7137.336460 14041.472908 10855.586815 20234.701945 15775.056601 8280.301921 8010.238627 9113.235896 15413.772253 7786.900946 15808.148583 9312.642002 7659.703398 8049.347460 11352.041457 11283.621390 8310.616985 8204.215840 21262.245189 3986.955485 3856.194084 2236.617724 2659.785717 4811.002653 2703.596133 3917.961393 5947.783263 6314.721418 5855.361931 5845.510179 4827.281805 3992.918305 3991.884373 8110.757111 -7266.522164 -3187.085601 4452.673167 4271.385823 4196.664580 -396.446781 -396.307924 -396.218673 -396.137649 4042.622073 4082.674622 4174.802351 4301.746131 14087.951058 13244.369785 13179.739696 15585.141231 15397.669693 10364.476208 19182.440716 12382.554013 14238.301524 11042.591046 14083.718778 14117.105875 15301.203917 16883.191624 7693.182226 15987.187940 13648.375267 15025.112893 14769.036813 6658.638073 7822.033945 10798.865662 7959.098914 7938.833562 8958.498342 3658.444449 22689.398784 6141.151531 1234.509816 800.773897 3952.142267 1113.722323 742.370208 537.768811 2127.466593 3230.888276 7820.336518 1207.625072 64446.560345 7552.760980 -411.798041 -411.653865 -411.546964 -411.456089 4140.702732 4192.526987 4342.383174 4692.799043 14076.715886 14203.164282 11356.433642 15964.834501 13895.200659 11121.957921 11629.704930 9727.508192 10314.416225 9672.730424 8803.608710 7773.169434 13095.565319 15921.490973 15333.797371 11706.341668 14383.564382 14964.955660 18826.608599 17044.471859 9132.975786 7468.488425 5116.574321 8874.165399 8768.192852 1721.907384 5577.761767 7887.434301 7338.573116 13796.004937 7695.132617 10244.771656 2900.610237 11189.509934 5494.840727 2612.702262 3837.889378 5589.638856 -12057.297649 -20364.171641 -425.943340 -425.805222 -425.697585 -425.607998 4233.769767 4281.278232 4388.450252 4617.346241 17889.333435 9511.286955 11919.395877 10614.815030 10039.728919 10654.670688 9543.454650 10978.650263 11692.852038 11178.964201 10199.859530 9189.613764 11602.989950 9995.756100 9487.019676 10882.599053 13309.608052 11652.284538 16392.618999 14791.383871 13363.095924 14898.479722 15957.771990 7654.349412 8548.860313 17320.459460 10666.242924 11693.062395 9255.906358 21928.597362 10200.853475 10615.449456 873.670950 16904.385215 11893.006826 41413.954483 7827.713528 6994.395059 -1086.411553 -107.876655 -439.004168 -438.876580 -438.775076 -438.691294 4320.639275 4379.659479 4563.829649 4930.213645 10430.958741 16367.269004 8569.850369 10981.433469 8919.547073 11013.242484 9307.170332 10314.356265 10105.215348 9288.428181 9409.670465 11290.695715 11678.838208 11433.942141 15185.253160 16076.948850 8032.477868 10519.981838 11292.695354 10429.068032 11081.057340 14363.107616 13538.758673 16290.662069 18718.369434 17413.522425 16132.654954 22289.724261 15614.139065 13873.848537 17177.978529 21912.536863 8310.025149 5970.396012 8477.730232 8340.751671 -9889.091685 26265.663586 8439.846551 5337.081921 -451.092269 -450.976672 -450.883852 -450.807502 4388.690326 4443.690309 4673.491513 5306.935852 11375.015491 11299.889871 7019.542056 7944.283576 6513.082018 5493.806245 8034.611638 11301.102917 10362.410456 13672.386631 6080.197885 8364.974387 16008.948475 11478.276752 14006.907197 11462.147030 12603.688775 11478.627730 11476.122082 10856.938991 9985.821764 12843.402393 12405.584008 9596.481550 13000.686054 11190.098599 13639.705130 11401.323031 14039.097265 10696.924606 16120.702232 15388.393413 22859.282749 17916.223965 12410.855859 13338.169270 7212.732119 5408.065029 1540.725895 -2046.128794 -462.311734 -462.208203 -462.124698 -462.056105 4433.154202 4454.901819 4569.381520 4985.072012 11354.456997 9245.923034 11192.651051 8589.696114 10526.420231 9462.577691 5097.264329 10011.790645 6381.892572 9732.024550 11210.112563 10607.007275 11358.803883 10947.283090 8443.204621 9397.456040 7088.427800 10840.312255 10521.717665 8052.090456 11163.978761 11406.506895 11914.814988 12724.074944 13249.466996 12673.509449 11533.603694 16633.520590 11902.478541 10368.111739 13829.113917 10876.959034 16149.675276 15989.424265 14516.496243 26155.934068 24655.609840 23649.933656 13151.272278 9655.947864 -472.758874 -472.666776 -472.592316 -472.531175 4459.590076 4461.671706 4588.895588 5184.895177 6238.606790 8442.725094 7177.028305 12251.240729 10715.493858 10124.271975 9986.177208 8461.053134 5798.399240 10835.387037 10739.589670 8739.851897 5084.914446 10781.914043 11692.710913 9963.774979 9848.789969 6112.516367 7291.674366 10149.528006 11664.595364 10932.829630 8040.585621 10570.997038 11959.218049 11158.508519 11432.631091 10988.233741 9252.043143 13858.349273 10420.413263 1004.395859 13066.983738 10592.624707 13365.603265 2251.341323 20060.058979 22983.363436 24986.180113 32495.574561 -482.521226 -482.439518 -482.373360 -482.319029 4450.301141 4416.626287 4467.348048 4932.538282 9191.009773 10735.981002 7788.561852 8546.535295 8780.500551 1224.905881 7993.851221 1007.884820 10765.165497 -3690.746099 7282.867262 10466.346090 10014.416967 16947.162093 3909.099848 8806.930931 10021.854448 7756.275728 10762.771325 9032.935223 9437.660967 10738.811828 10339.214662 7310.650582 4433.142615 2440.787987 9701.454036 8659.196865 9357.940366 10854.295977 13162.526458 11704.993288 9344.286632 6434.723298 11870.776944 12990.357346 2011.227431 16775.804442 17205.175761 20893.843159 -491.676301 -491.603667 -491.544791 -491.496418 4377.117921 4286.910517 4183.002270 4204.744639 17673.966572 2302.416237 -17208.997605 -4989.020431 10599.160265 2384.902294 7018.332044 10387.477666 3231.999318 -2416.718260 9973.523475 2860.986912 8043.604331 6630.104011 5951.345082 5176.006410 9726.574571 6626.028213 8343.916759 4446.188911 9960.184201 4924.207303 6624.870414 7826.486695 7954.509559 4221.508406 9258.257218 10395.227953 6680.014105 12201.381339 8350.009383 7690.590795 9750.974599 5923.528114 11392.906699 4298.656475 2897.127271 481.360557 -486.176351 13920.264633 -500.290335 -500.225263 -500.172463 -500.129055 4210.548239 4062.394246 3843.545471 3681.345487 2737.749668 4617.465387 -2576.164800 5226.815768 3915.855906 4474.326977 51650.972732 -15843.389394 5925.592040 2517.167774 -3716.115093 5188.327878 18046.427760 9502.913935 469.299409 6564.451618 -3731.312151 7157.994535 7783.707068 7436.999061 5539.363436 -1115.406991 8188.853951 9307.627847 962.437345 6513.930392 6293.339751 9217.825034 6361.135953 11114.275337 1330.487519 11101.105805 7124.627601 9076.404636 7346.391898 2034.660953 7102.470988 12436.769820 1835.020383 4322.004339 -508.417185 -508.358014 -508.309959 -508.270422 3919.214851 3720.394578 3405.874097 3103.007111 -8274.024790 9382.196473 4062.894801 7096.437964 7618.429742 16796.276916 5676.848920 33457.653985 4565.092802 -2084.671358 -3501.572571 7241.107786 3595.859066 7267.294930 4574.070232 -15718.243516 19843.920985 -1134.803857 3746.040388 1810.759208 3934.730243 3078.665917 2947.898935 8277.133472 49328.886744 6731.850367 3747.006656 4354.680881 7217.536442 2527.544716 5376.542971 8798.535749 10361.803783 4025.054572 2256.287414 3732.945716 8167.066258 1317.528641 8524.509945 8548.811119 -516.097440 -516.042407 -515.997677 -515.960848 3477.894429 3245.670055 2888.115940 2618.085516 -6772.604337 7898.169545 -6898.852955 6072.767089 -7495.495103 -12667.672271 1838.063236 -6779.033701 -9211.982602 -1979.070117 5200.641454 2923.333231 -8172.614360 -4462.689539 8087.233872 -8329.485518 2486.830661 -11169.480190 -8215.455501 3227.120386 -2890.726133 4115.961137 -2544.849814 -1834.085454 5539.486693 7229.338722 7750.721578 -6415.044253 5576.475765 -1366.582330 9247.275466 6836.381205 -10085.749589 7117.193587 705.001325 8209.196170 7437.383862 1966.594603 7984.680094 3417.093111 -523.357805 -523.305087 -523.262212 -523.226887 2880.989917 2628.358422 2262.455186 1992.084092 -2631.349200 76971.122372 1767.244257 17704.666247 -14166.666301 3001.351260 56576.388720 716.432619 3014.182966 7703.648994 6641.279875 898.466517 -2583.235593 -10259.770457 7900.323577 468.988516 31628.476822 -17095.191597 56982.478738 6962.768171 -9384.947238 1515.744822 2852.498185 -2363.626644 -15843.389394 -4215.936473 -2006.992104 6947.794400 6063.911454 23691.612629 7479.799816 28341.886416 2907.363094 2599.074192 1287.749509 2982.454535 13517.921057 3905.651747 3280.588931 3311.736521 -530.210788 -530.158545 -530.116042 -530.081008 2164.876199 1905.024821 1536.028365 1292.253411 -536.654732 -536.601154 -536.557566 -536.521631 1420.415989 1170.553057 884.033214 973.360849 -542.674198 -542.617555 -542.571488 -542.533514 782.055495 533.352148 195.960532 -48.480612 -548.240741 -548.179433 -548.129600 -548.088535 392.618653 191.661890 -85.466999 -560.619198 -553.314066 -553.246672 -553.191932 -553.146847 304.141684 249.330994 355.570651 1042.075385 -557.843582 -557.768916 -557.708315 -557.658434 427.491312 526.202989 1040.701475 2622.205238 -561.770352 -561.687508 -561.620322 -561.565056 636.656426 779.465943 1273.406979 2559.010714 -565.029411 -564.937812 -564.863582 -564.802564 885.150484 1022.133006 1362.921458 1969.909498 -567.552447 -567.451890 -567.370462 -567.303569 1174.083412 1347.708020 1831.508736 2553.471151 -569.270806 -569.161503 -569.073053 -569.000437 1479.162031 1691.190794 2379.998272 3915.030193 -570.118780 -570.001385 -569.906450 -569.828560 1766.801504 1962.604128 2513.878929 3336.765786 -570.037119 -569.912759 -569.812256 -569.729849 2017.819683 2191.781081 2818.695225 4025.975496 -568.976718 -568.847005 -568.742245 -568.656401 2212.307990 2270.376178 2551.495331 3411.538445 -566.902396 -566.769435 -566.662122 -566.574246 2404.368795 2310.651715 2186.323461 2302.705217 -563.796677 -563.663058 -563.555291 -563.467106 2680.107231 2463.534096 1927.314785 1122.961037 -559.663492 -559.532271 -559.426522 -559.340059 3082.490587 2853.191898 2369.190078 1580.056438 -554.531688 -554.406353 -554.305443 -554.223017 3559.003276 3342.520058 2957.925509 2499.927412 -548.458235 -548.342657 -548.249715 -548.173891 4036.267564 3804.043318 3290.621279 2518.913839 -541.531012 -541.429384 -541.347794 -541.281344 4480.125113 4263.929006 3785.332596 3087.602797 -533.871060 -533.787812 -533.721148 -533.667003 4869.291098 4692.820286 4284.531684 3633.165747 -525.634167 -525.573872 -525.525826 -525.487004 5190.513968 5080.556925 4784.682563 4074.248216 -517.011681 -516.978951 -516.953238 -516.932780 5432.851408 5408.254505 5474.931583 5685.605875 -508.230453 -508.229813 -508.230078 -508.230962 5593.900929 5569.247365 5425.615880 5079.086397 -499.551799 -499.587558 -499.617272 -499.642332 5726.787226 5750.861009 5861.290655 5960.328222 -491.269444 -491.345561 -491.407905 -491.459739 5835.589096 5859.692213 5785.127406 5554.343880 -483.706390 -483.826335 -483.924097 -484.004975 5915.067958 5999.066389 6158.942226 6146.049706 -477.210721 -477.377340 -477.512803 -477.624582 5901.935852 5975.643089 6133.556526 6168.589537 -472.150379 -472.365771 -472.540615 -472.684657 5778.563976 5772.314028 5622.447085 4812.132569 -468.907001 -469.172409 -469.387620 -469.564719 5579.678721 5528.233695 5292.762855 4632.009559 -467.868946 -468.184665 -468.440467 -468.650792 5334.411329 5269.420895 5104.981256 4707.213851 -469.423684 -469.789001 -470.084803 -470.327857 5056.465279 4981.895384 4697.246167 3920.092074 -473.949771 -474.362928 -474.697300 -474.971899 4757.621886 4728.940564 4762.501682 5171.618279 -481.808643 -482.266838 -482.637508 -482.941780 4428.966969 4379.709100 4163.321722 3618.145380 -493.336494 -493.835914 -494.239795 -494.571203 4093.487082 4071.974092 4036.765352 3884.629719 -508.836495 -509.372377 -509.805618 -510.161001 3747.623065 3758.087783 3683.656268 3464.707534 -528.571589 -529.138311 -529.596368 -529.971999 3386.917904 3453.088777 3828.505807 4581.612529 -552.758054 -553.349241 -553.826966 -554.218623 3027.764760 2990.560532 2893.539979 3071.749808 -581.559958 -582.168603 -582.660336 -583.063377 2794.045504 2719.557345 2419.079040 1924.684653 -615.084557 -615.703134 -616.202793 -616.612233 2744.574366 2738.919327 2735.599974 2696.805919 -653.378576 -653.999139 -654.500302 -654.910872 2829.690381 2892.253940 2910.358639 2732.208366 -696.425214 -697.039468 -697.535426 -697.941622 2978.229721 3132.167537 3575.691029 4176.394732 -744.141647 -744.740983 -745.224766 -745.620866 3108.059772 3229.956629 3356.677171 3501.398346 -796.376696 -796.952178 -797.416553 -797.796610 3216.873022 3367.194378 3712.349054 4173.342456 -852.908338 -853.450657 -853.888085 -854.245900 3274.587441 3395.868192 3603.163867 3601.926163 -913.440754 -913.940148 -914.342729 -914.671801 3306.322140 3376.537957 3629.412263 4402.026256 -977.600705 -978.046881 -978.406310 -978.699797 3383.628985 3358.125124 3060.803489 2440.228336 -1044.933245 -1045.315349 -1045.622930 -1045.873654 3605.122463 3620.939876 3749.081374 4103.033279 -1114.897029 -1115.203749 -1115.450553 -1115.651111 4003.407945 4060.976325 3768.844079 2441.801928 -1186.859826 -1187.079761 -1187.257113 -1187.400224 4607.671781 5007.633825 5840.256016 6728.956149 -1260.095210 -1260.217773 -1260.318394 -1260.397702 5304.291487 6133.904190 7661.818410 9511.113673 -1333.781621 -1333.799000 -1333.819540 -1333.831378 5947.088813 7339.700087 10378.830606 14749.698607 -1407.004932 -1406.916233 -1406.862832 -1406.810010 6397.221845 8135.527689 11174.859959 15025.880175 -1478.764587 -1478.584775 -1478.485377 -1478.385415 6664.264904 8707.611173 11253.171817 11997.197535 -1547.980293 -1547.760106 -1547.692186 -1547.595368 6572.318389 8779.860086 11254.035712 10458.705742 -1613.487812 -1613.360159 -1613.513975 -1613.542700 5858.759147 7651.367969 9999.874802 12217.818299 -1673.990303 -1674.285241 -1675.109241 -1675.540140 4871.947069 5814.445583 6490.047488 5757.599434 -1727.867532 -1729.428388 -1731.960404 -1733.373431 4298.673783 4869.587043 4945.519887 2592.185424 -1772.544044 -1777.714365 -1784.319791 -1787.739618 4245.836170 4910.191639 6384.999393 8725.248986 -1803.127531 -1819.072827 -1834.240284 -1840.758745 4448.154697 4993.160779 6097.821087 7739.334870 -1825.196699 -1863.947301 -1889.951754 -1894.948675 4774.899431 5124.959570 5533.966904 5662.048647 -1932.414539 -1947.138280 -1951.266573 -1948.245533 5204.878593 5523.565518 6112.261331 6640.500821 -2079.946480 -2035.638775 -2000.821687 -1992.675933 5647.385296 5904.155939 6529.696293 7715.675381 -2076.953229 -2050.572863 -2031.742696 -2026.016126 6068.901684 6220.509890 6403.873711 6203.292398 -2066.362227 -2061.504173 -2055.484022 -2052.259888 6487.152319 6611.629749 7130.972180 8451.011640 -2084.043587 -2082.529102 -2079.905217 -2078.454022 6911.251680 6889.793717 6789.256243 6809.786729 -2115.288070 -2114.889432 -2113.078173 -2112.162451 7419.300509 7346.973136 7186.425074 6771.422911 -2167.687407 -2166.463631 -2162.684462 -2160.621424 8024.174515 7948.373853 7815.857702 7598.433422 -2253.541669 -2247.573133 -2236.361923 -2229.858579 8695.020184 8670.113385 8613.296547 8807.154363 -2393.443738 -2371.888975 -2340.271810 -2322.297793 9378.644797 9455.184354 9763.919128 10425.028375 -2627.469893 -2556.872328 -2473.975129 -2431.637340 10023.192733 10118.286120 10548.003936 11601.401400 -3043.234619 -2803.058874 -2618.190762 -2535.460710 10654.489008 10699.192128 10654.712662 10631.939166 -3622.513419 -3037.733733 -2711.738341 -2594.097328 11333.066058 11539.944131 11956.409253 12488.753675 -3930.987289 -3031.945167 -2688.162374 -2571.438575 11969.582684 12350.488481 13562.331824 15705.979218 -3469.482974 -2753.755894 -2549.804907 -2462.447705 12484.609126 12794.255620 13465.720735 14347.724601 -2581.604990 -2448.633161 -2342.339848 -2291.028400 12952.060125 13244.584033 13769.170287 14630.828170 -2193.972658 -2158.918573 -2113.726650 -2088.875566 13398.738192 13778.722357 14606.992721 15726.034395 -1917.046504 -1906.164952 -1889.424383 -1879.643766 13750.640791 14189.616787 15202.911853 16431.899945 -1681.485330 -1680.414813 -1677.316000 -1675.588326 13948.505273 14368.024189 15332.598127 16786.908795 -1464.820525 -1471.044693 -1477.814644 -1481.811928 14007.362559 14366.026910 15111.724912 16178.469157 -1249.771772 -1270.367144 -1290.931315 -1301.499596 13973.557461 14289.468439 14985.835370 16047.760499 -1007.368060 -1078.791986 -1120.664539 -1139.501299 13879.704332 14145.884075 14780.821567 15998.488206 17698.738101 17939.873267 14392.273475 13570.248906 11880.472743 11313.240909 12307.224915 10507.176939 9195.670085 9392.895568 10414.809561 10501.549263 10527.158936 10117.738775 10068.967575 10108.269131 10017.229947 9609.141057 7425.695749 6911.835744 7244.883992 6253.125683 4520.361787 4053.251126 1800.703539 33.716119 1557.146502 2197.589618 2106.901919 2251.297259 2237.796033 2196.339573 2140.148477 2072.807801 1994.098611 1902.566630 1796.750098 1675.771687 1539.561969 1388.858769 1225.077397 1050.117090 866.145870 675.384762 479.888076 281.277848 80.303324 -124.164664 -338.093655 -583.671277 -796.672234 -914.171830 -976.689842 -1003.029669 13759.946429 13964.938120 14431.072061 15262.849299 16003.719660 15811.075473 14135.998578 13450.083284 12302.002320 11643.071124 11175.991926 10399.468228 10205.554078 10325.120469 10512.463733 10487.104451 10712.357824 10626.356353 10331.045513 10004.970895 9640.240474 9311.516606 8343.213293 7792.023683 7240.192798 6224.764888 5198.386153 4350.437304 3346.084934 2605.627450 2421.203888 2384.570470 2348.000604 2307.620946 2261.947855 2206.761703 2144.039348 2073.299246 1992.699626 1900.093167 1793.708990 1672.517360 1536.357139 1385.897453 1222.496015 1048.005027 864.561864 674.387219 479.598235 282.027312 83.021737 -116.763935 -317.071684 -511.995577 -680.234358 -798.509497 -868.752380 -899.109536 13654.232942 13793.848355 14066.309096 14402.383335 14566.278899 14321.997042 13741.275830 13123.479311 12517.220175 12017.145781 11557.027324 11215.781222 11039.701122 10996.447610 11030.347310 11055.101114 11014.355733 10862.317799 10603.934919 10262.160343 9835.608401 9292.659045 8642.372948 7961.405352 7235.828178 6423.052893 5554.275379 4681.005869 3863.873974 3224.305866 2829.526508 2607.799845 2469.517252 2371.206250 2292.123259 2220.630266 2149.828761 2074.940839 1992.119370 1898.293739 1791.266873 1669.803438 1533.630478 1383.344465 1220.249218 1046.157824 863.189612 673.587354 479.576151 283.290922 86.831616 -107.383675 -295.482731 -469.870212 -618.318793 -729.774038 -800.326038 -831.818859 13605.631669 13714.220804 13895.567421 14082.455246 14136.654170 13950.386826 13553.316483 13060.676452 12566.413306 12124.990965 11753.721096 11467.988197 11290.272296 11216.177533 11199.831248 11177.980750 11097.687905 10926.269044 10659.217331 10304.543054 9861.415329 9322.738801 8699.317115 8018.429803 7284.102617 6490.696032 5657.707500 4828.659107 4066.176764 3444.714721 3003.215634 2716.496698 2531.298896 2404.389143 2308.862288 2228.440470 2152.917833 2075.458567 1991.164969 1896.472593 1788.958225 1667.277145 1531.092777 1380.954173 1218.124446 1044.382870 861.827924 672.708107 479.310045 283.948221 89.138461 -101.905907 -284.357998 -450.867219 -592.141689 -699.912622 -769.571440 -801.109726
</DataArray>
<DataArray type="Float64" Name="Velocity" NumberOfComponents="3" format="ascii">