<VTKFile type="PolyData">
<PolyData>
<Piece NumberOfPoints="2064" NumberOfVerts="2064" NumberOfLines="0" NumberOfStrips="0" NumberOfPolys="0">
<PointData>
<DataArray type="Float64" Name="Pressure" format="ascii">
 32759.173475 32210.181798 31232.381845 29913.911669 28415.850899 26885.543327 25425.305427 24095.604531 22860.946644 21588.953905 20224.737842 18794.644874 17306.614790 15763.977692 14188.686299 12605.767802 11033.384528 9491.015560 7991.254724 6528.884484 5077.269260 3593.328680 2087.462936 739.743657 -197.962599 -713.245209 -966.140303 -1103.753987 -1203.390713 -1295.584018 -1389.212237 -1484.397953 -1578.175033 -1666.948466 -1747.513836 -1817.414355 -1874.994190 -1919.320598 -1950.059440 -1967.344783 -1971.660832 -1963.742760 -1944.497215 -1914.940647 -1876.152733 -1829.242405 -1775.324999 -1715.511182 -1650.912600 -1582.677973 -1512.089978 -1440.775604 -1371.064675 -1306.325851 -1250.699142 -1207.884839 -1180.061016 -1167.457991 32358.424754 31792.715451 30746.662720 29341.808179 27794.551458 26270.092795 24818.421171 23546.417275 22448.607486 21200.883729 19777.576207 18337.363941 16847.969447 15289.500006 13708.616086 12134.696986 10569.965573 9044.068340 7579.639764 6171.365597 4795.244193 3354.554543 1722.050119 173.227751 -692.676123 -998.698529 -1102.347629 -1165.875027 -1232.392212 -1309.344836 -1395.534197 -1486.800092 -1578.341372 -1665.759198 -1745.481553 -1814.869737 -1872.166731 -1916.375773 -1947.117820 -1964.493499 -1968.961461 -1961.237233 -1942.212341 -1912.891462 -1874.344666 -1827.671900 -1773.977549 -1714.354131 -1649.876604 -1581.614291 -1510.682236 -1438.397371 -1366.723350 -1299.129672 -1240.892388 -1196.781152 -1168.696924 -1156.151986 31799.727232 31168.985545 29957.742164 28306.648786 26632.588844 25211.498265 23723.276841 22405.626511 21696.660653 20473.006709 18903.433596 17540.806870 16057.434271 14427.521955 12825.630968 11293.969716 9720.226270 8209.355301 6816.489507 5502.276584 4320.340456 3108.575088 1121.125715 -1348.612305 -1771.128111 -1487.068857 -1293.818807 -1250.389971 -1271.046614 -1327.337788 -1403.792683 -1490.203919 -1579.151226 -1665.088152 -1743.928045 -1812.789862 -1869.792363 -1913.867377 -1944.589770 -1962.027694 -1966.615740 -1959.051175 -1940.211471 -1911.090202 -1872.747950 -1826.274864 -1772.761604 -1713.275202 -1648.835363 -1580.384193 -1508.739428 -1434.537561 -1358.365289 -1283.070101 -1217.439708 -1170.899570 -1143.072475 -1131.042151 31163.151748 30454.815832 29020.307059 26853.122549 24901.154716 24077.892892 22267.859300 19770.284077 20040.715823 19099.158325 17377.731949 16720.715140 15073.344320 13163.636728 11648.173934 10273.779691 8588.047037 7089.107688 5835.289632 4636.166558 3674.282742 3175.593809 706.487223 -4004.184097 -2942.305003 -1655.514608 -1403.225679 -1304.180643 -1296.990216 -1339.913301 -1409.787318 -1492.742113 -1579.722213 -1664.458228 -1742.536587 -1810.918500 -1867.637456 -1911.572280 -1942.260686 -1959.742830 -1964.431544 -1957.007068 -1938.333545 -1909.394008 -1871.240278 -1824.954105 -1771.615558 -1712.273415 -1647.908533 -1579.370632 -1507.238972 -1431.460965 -1350.246273 -1255.786859 -1173.426269 -1127.573685 -1102.925095 -1092.548828 30567.912321 29813.091786 28264.824376 26067.828548 24150.690977 24245.828767 22892.709267 23800.637560 22561.366456 22710.189228 19021.521119 22202.767700 19388.259572 20009.842598 21991.535240 19247.952207 17824.281576 19441.340828 18388.792498 17970.173463 19244.229909 17767.000580 16440.907396 17164.692726 15773.756479 16339.792015 15156.626342 14183.737974 13745.576286 12656.554086 12086.582680 11264.061737 10099.325164 8982.532039 7926.151803 6971.301387 6039.531600 5331.952035 4603.522565 4176.325616 3276.608368 2590.053621 284.302063 612.288476 -1094.472458 -1066.834135 -1050.329093 -1042.939044 30097.309926 29323.493359 27754.759940 25657.020375 23741.404138 22554.582009 24102.666022 24562.115159 20597.571533 22776.914305 21423.612794 21218.822471 20752.954470 19226.111218 18692.941973 20077.203587 18859.508443 20019.793852 18368.246016 16648.535927 18057.585253 18004.897917 17832.217072 16583.481284 15749.765294 14765.982915 15149.872370 12992.280998 12851.990665 11640.707607 11753.822306 10366.201158 9964.793803 9252.559467 8532.208628 7766.746708 6955.709626 6170.372043 5580.915129 4585.510852 3734.106789 3059.594792 1124.910677 1711.301869 -1006.341391 -998.396821 -990.090889 -985.877241 29785.276467 29027.456471 27411.554797 25019.317621 24709.491744 24040.571133 23188.166306 21592.150697 22281.756377 21298.242840 20554.411484 23332.311896 21118.794616 21207.159233 20080.146196 20009.984533 19533.028316 19462.821155 18645.972963 18361.013896 16529.376177 17997.161090 17133.213872 15236.527666 14929.631721 14126.367365 14672.783763 13662.291429 12945.210908 12306.810526 11360.316297 10557.033321 9451.273234 8915.137336 8093.408607 7508.432211 6750.226553 5984.829623 4933.258210 4251.095417 3425.587675 2560.498790 1680.895188 306.133596 -933.348501 -930.737340 -927.252470 -925.267919 29614.187078 28925.836939 27599.349354 25814.953279 25991.608587 24104.554331 22916.650732 26172.904896 24127.699435 22894.162756 20506.684349 20744.694952 21187.204083 22135.127105 20969.098698 19905.374895 18638.637697 19855.225934 17708.960749 16931.293132 18579.364970 18425.152227 15913.159276 14530.637567 15674.363127 14057.385254 14802.597525 13490.481336 12409.589133 11778.233674 10266.863415 10167.037270 9248.318214 8469.344600 7973.837974 7152.973996 6682.686410 5600.494356 5191.579664 4240.735937 3756.196339 2895.594128 2019.988313 746.604983 -866.949773 -866.143130 -864.822082 -864.045102 29523.171666 28861.692655 27526.788680 25720.090059 22299.067885 24086.246540 22706.192140 22184.561218 22187.240570 22581.941864 22809.533614 20663.866978 23033.446977 19438.660872 20641.521156 20646.514725 19730.523929 21276.194892 19358.679043 19142.264052 17513.583145 16393.812593 17159.799444 16488.599921 15687.430605 15133.217822 13747.276804 14018.858399 11807.789629 12035.419726 11095.457290 10610.710085 10413.854934 9932.652036 9200.985433 8146.422695 7072.607167 6166.779869 5304.081450 4535.857509 3779.580726 3094.287536 2438.513999 1564.925181 -804.650977 -804.534980 -804.144518 -803.939575 29473.406526 28858.106873 27562.422203 25635.880720 23159.403130 24189.284059 21738.908532 22240.543441 22903.307244 21974.558026 21733.842599 22066.134299 21558.522321 22238.284880 20514.901328 20013.410348 19536.130230 18453.411410 19058.658937 19680.500167 17744.745872 18343.315472 17807.200531 17345.598090 15851.125912 15731.328804 13462.041485 13469.603302 12142.146402 12696.119121 12568.748312 11856.252211 10661.738294 9677.699626 8716.627072 7731.802892 7019.276249 6132.107366 5460.918209 4595.017988 4004.909046 3307.284402 2713.582688 1808.495739 -745.621152 -745.787816 -745.794920 -745.846401 29410.290938 28874.365269 27816.159112 26110.285981 22839.833360 23203.054153 20315.366132 22772.954453 21854.049154 21315.346875 20934.710796 21852.496003 21861.239082 20389.938737 19644.698488 20346.397372 20377.750052 19897.209581 18458.327416 19305.507175 17585.600933 17228.690381 17718.686646 17056.900687 16733.849077 16475.182865 14644.091396 13465.229953 12705.731987 13013.599740 12097.241922 11455.646469 10833.442952 9968.863735 9164.716613 8289.242649 7460.483107 6437.516824 5721.807911 4740.299121 4186.148545 3401.323794 2841.722891 2049.730662 -689.578107 -689.864334 -690.041431 -690.205251 29259.580100 28796.919079 27953.526057 26930.724983 22434.409045 21158.135302 19661.540685 21789.849183 21389.029801 20827.790301 20637.332736 20538.814606 20803.446974 20329.047894 20307.355932 18742.237055 19912.020753 18336.603928 19206.006850 19033.536750 18312.029562 17567.900627 17031.427870 16615.742623 15401.205238 16345.126592 15289.970672 14939.719421 14266.939653 13878.679370 12916.015447 12291.639682 11574.837920 10746.903178 9710.652179 8378.874537 7371.380356 6394.386322 5776.073228 4862.488982 4331.485521 3553.690222 3042.419807 2209.284260 -636.428818 -636.765748 -637.015112 -637.227251 28975.965900 28513.450448 27756.893906 26860.610471 21054.526535 21149.317149 18616.716258 20133.268800 20650.104084 20100.837041 17625.260218 19226.401164 20167.204943 19815.434027 21252.338705 20139.037784 19506.300914 19048.117075 18297.437179 17896.016415 16777.231829 17695.907736 15990.662574 15282.613865 15864.226844 16643.564575 14849.007392 13157.850387 12414.622060 13372.744705 12779.605899 12341.202937 11833.695221 10760.786969 9499.785272 8196.291953 7388.778764 6532.770284 6034.966303 5042.801020 4518.653030 3683.318246 3167.194081 2354.919354 -586.139168 -586.496252 -586.775167 -587.007025 28585.206731 28038.820312 26974.860993 25358.294030 20314.341919 20694.677639 18577.294244 19230.743243 20395.069555 18680.088174 17989.602187 20342.284048 19863.428406 19717.547301 19171.145480 18020.278062 19533.399400 17959.744778 16655.609557 17674.260565 17813.166866 16437.837498 16381.495099 16581.313564 15942.509478 15352.742300 14818.495600 13939.202362 14003.618087 12670.196849 11989.207224 12245.361525 12081.077144 11163.536079 9556.206495 8188.500951 7699.891632 6845.520514 6253.013704 5150.734295 4631.845068 3802.733574 3309.619779 2489.371990 -538.684708 -539.047500 -539.336643 -539.575014 28162.256091 27563.676341 26586.423367 25731.366972 18377.295467 18488.645321 15827.317170 18366.924724 18404.226496 16005.500575 16173.712426 18400.291225 18447.111765 16823.777204 16354.204798 16571.894234 17798.114055 16748.909433 17380.646751 18404.557136 17902.598653 17060.045640 16075.431263 17177.888726 16747.952798 15344.292063 13926.707568 14259.985666 13449.467585 12640.150074 13348.565837 13377.763132 12697.552016 11107.833785 9117.439241 8037.689024 7874.201790 6930.502425 6272.120029 5260.439278 4720.237987 3941.914605 3451.225598 2640.678160 -494.032655 -494.393694 -494.683802 -494.922186 27754.421902 27039.889501 25630.456617 24101.999630 15129.038985 18936.413940 14890.541035 14093.104408 18307.895604 13011.380589 13997.422381 18478.952550 18013.038616 14760.656151 12784.711022 17304.452126 15565.216183 16974.819573 14054.233752 16122.495465 16269.024533 15646.605977 15482.807965 15921.605782 14356.419459 14679.035064 14757.495601 13788.173591 12928.083329 12108.551611 11793.710284 12728.493576 12787.270055 10393.707837 8663.082222 8562.783950 8167.269158 6970.678923 6287.432060 5323.539825 4747.563156 4068.249689 3600.231673 2818.156786 -452.136374 -452.491364 -452.777602 -453.012492 27425.755821 26710.134204 25147.557503 22762.708886 13375.683810 13939.105557 12014.026055 14046.124599 13674.625502 12705.195655 12573.051084 15083.142960 13353.300421 11580.268808 13853.899026 15583.152137 14319.694434 15929.998572 15510.006985 15661.203923 13323.773463 13730.697175 15260.427998 14646.534719 13161.119744 12890.305414 13127.850245 14035.525613 12531.376926 12606.277412 12658.305017 12183.054252 11645.175069 9697.103491 9464.417719 8774.402748 7980.563854 6762.349254 6462.047356 5355.058240 4769.236556 4188.595351 3738.093061 3025.408630 -412.934846 -413.281039 -413.560606 -413.789898 27147.511251 26561.497317 25624.759726 24473.942564 14780.868782 11904.248408 10246.570476 10855.951499 14947.132484 11055.075971 14200.347887 13262.324377 10563.687662 11632.081550 15452.175462 14304.049981 14575.053262 14983.190959 13413.393272 13003.771998 13041.132051 12610.323340 13287.535459 12157.108056 11181.050577 12296.745085 13264.254007 13379.554402 12740.113028 11234.837631 9780.657902 11737.819485 10427.436321 9520.686791 9710.137655 8884.644561 7579.990856 6735.562832 6589.173677 5366.251965 4926.074661 4276.022463 3831.068971 3247.938585 -376.354041 -376.689527 -376.960637 -377.182945 26817.012279 26256.937309 25196.706448 23957.937563 12505.131380 10139.619890 7757.836032 10142.269406 12139.340110 8476.557801 8530.376832 10799.899483 10918.079250 9911.224581 11489.920514 13737.243291 11655.294880 10545.604241 9910.720241 10618.363841 12852.152290 12870.590919 10691.126845 10597.259092 11466.366771 11429.110147 11761.104067 11491.879607 9925.920619 9947.828145 10553.166568 10708.510249 9562.350291 9217.366637 9416.153586 8331.202632 6950.453613 7463.257642 6538.459223 5274.284963 5271.998293 4271.930610 4014.653903 3444.806071 -342.308915 -342.632310 -342.893738 -343.108090 26425.630926 25896.551554 25063.715774 24407.160972 10948.085783 9433.149464 8423.327679 10966.628111 11147.258004 10783.943270 10295.074523 7786.852789 7865.444786 9374.556857 8053.384387 9049.375577 9846.012710 9299.653780 8780.767359 9898.065994 9920.944490 8847.258625 9235.835259 9686.197509 10478.456767 11111.133709 11152.448020 8972.933765 10044.465809 9823.871323 10551.398115 9109.146094 8923.188166 8866.605489 8612.540127 7498.501396 6992.415515 7153.239187 6424.736047 5747.539226 5335.260864 4315.485225 4335.625585 3676.638135 -310.705516 -311.015804 -311.266683 -311.472383 25990.707273 25413.562848 24155.898169 22405.440453 10458.113512 9570.562632 9866.308741 10555.552679 7468.713240 11909.588441 10718.240265 9800.050416 9324.967458 8807.902209 8758.826394 7902.095231 7018.650093 7397.274009 6327.493957 6714.329260 7442.686994 7290.743531 8319.401477 8098.380737 8945.910125 8631.709102 8198.405807 8782.720877 9179.039306 9720.309926 8653.050623 8812.646438 8533.791798 8782.880424 7810.272855 7122.347257 7711.545471 7179.785885 6256.787013 6584.683156 5481.321911 4823.224604 4421.473506 4335.663810 -281.442979 -281.739432 -281.979152 -282.175704 25571.111547 25082.754269 24156.507594 22803.198704 11750.516015 7923.102021 7024.089050 10613.339268 7583.600307 7008.058578 9094.869510 10629.860179 8326.956145 6848.962675 8570.586217 6328.915232 7018.478270 6730.395528 6641.137866 5918.973783 6525.892243 6437.559500 5723.771896 5884.222424 6471.139431 6984.002545 7221.366767 7664.198362 8015.743287 7485.202486 7973.617698 8210.034707 8430.783605 7902.280291 7275.630317 7132.896068 7511.237968 6888.846051 6049.741012 6608.693869 5897.430154 5527.014871 4908.876449 5108.148634 -254.415346 -254.697469 -254.925620 -255.112690 25144.959861 24730.474372 24091.483453 23559.315596 6333.654144 6191.383667 4728.180139 10906.439200 6869.465063 4951.541477 5813.244336 5584.231413 7425.723943 7319.694941 4527.102271 6844.055580 5719.664694 5689.180997 5135.774542 5458.624566 5790.568291 6053.472783 5582.165123 5357.804150 5741.229750 5692.846319 5859.263241 5893.782437 6444.366989 6671.489018 6988.505259 7288.328306 7238.676494 6862.949048 6957.428685 7376.320319 7320.017981 6492.313052 6454.878595 6658.724776 5987.173967 6016.265074 5745.598434 5833.874596 -229.513178 -229.780674 -229.997011 -230.174397 24707.097621 24311.480577 23531.110696 22242.000346 6563.147224 8883.399401 6740.164405 6208.531100 5985.392745 6032.060551 5465.765434 4057.799633 6852.449594 5879.170117 5123.158701 5568.656164 6275.244719 7069.136957 7200.491705 4244.385417 3650.467553 3542.209501 4639.153709 4390.862360 4105.883318 4384.523932 4275.929880 4506.334185 4721.972133 5180.437352 5515.666303 5687.724371 5594.235592 5675.346240 5991.145759 6290.953391 6114.642727 5972.652693 6164.665321 6023.629752 5961.825970 6311.575314 6223.638051 6286.254454 -206.624974 -206.877715 -207.082129 -207.249743 24277.960333 23939.703947 23470.192579 23146.992609 -185.638406 -185.876404 -186.068905 -186.226754 23844.703929 23486.383015 22749.886052 21845.570678 -166.441378 -166.664770 -166.845467 -166.993640 23414.133735 23123.559744 22391.880184 21163.004302 -148.922946 -149.131973 -149.301059 -149.439713 22942.363016 22807.214819 22844.414403 22874.073451 -132.974089 -133.169079 -133.326816 -133.456169 22378.692956 22182.820088 22048.888127 22604.532098 -118.488365 -118.669717 -118.816429 -118.936742 21831.567906 21533.979392 20676.782207 19508.948067 -105.362452 -105.530624 -105.666681 -105.778260 21388.947717 21254.138003 20998.288162 20266.306821 -93.496591 -93.652091 -93.777903 -93.881082 20947.197037 20897.080815 21147.054767 21750.150713 -82.794946 -82.938320 -83.054325 -83.149464 20468.893767 20379.470301 20051.501213 19347.134953 -73.165880 -73.297698 -73.404359 -73.491837 19988.752545 19942.095196 20244.643853 21497.803499 -64.522154 -64.643008 -64.740803 -64.821012 19516.243273 19345.515315 18687.004179 17604.496034 -56.781074 -56.891568 -56.980985 -57.054324 19111.580035 19042.278787 18881.561086 18294.238701 -49.864572 -49.965315 -50.046845 -50.113718 18724.081690 18788.495407 18986.185440 19428.737982 -43.699238 -43.790837 -43.864972 -43.925780 18295.529396 18414.230435 18891.741651 19103.910569 -38.216305 -38.299362 -38.366588 -38.421732 17828.914663 17958.998521 18045.106542 18573.762848 -33.351600 -33.426707 -33.487502 -33.537373 17321.581984 17593.868057 18253.691431 18976.092670 -29.045454 -29.113188 -29.168018 -29.212997 16689.369243 16993.100529 17601.814599 17922.711647 -25.242584 -25.303504 -25.352821 -25.393280 15946.028208 16074.528708 16899.902057 19903.943806 -21.891954 -21.946598 -21.990838 -22.027133 15310.568213 15054.224893 13907.195467 12002.577461 -18.946610 -18.995493 -19.035073 -19.067545 14950.547118 14693.804663 13969.093954 13152.460527 -16.363500 -16.407114 -16.442430 -16.471405 14758.345306 14576.867877 14066.966628 13390.190983 -14.103285 -14.142095 -14.173523 -14.199310 14593.208487 14464.672435 14305.508043 14190.007006 -12.130137 -12.164581 -12.192476 -12.215365 14435.013525 14213.903076 13485.070938 12373.324344 -10.411531 -10.442021 -10.466715 -10.486979 14376.037711 14290.654071 13672.390303 11961.182865 -8.918039 -8.944958 -8.966762 -8.984655 14320.211522 14493.899737 15084.778332 16067.085639 -7.623116 -7.646821 -7.666023 -7.681782 14135.967534 14283.295018 14764.142788 15638.874968 -6.502897 -6.523718 -6.540586 -6.554429 13904.233238 13830.349548 13814.862362 13789.779866 -5.535990 -5.554231 -5.569010 -5.581141 13789.915458 13583.527584 12428.455836 10426.996174 -4.703280 -4.719221 -4.732137 -4.742740 13804.283769 13841.332250 14184.754444 14133.181749 -3.987739 -4.001635 -4.012895 -4.022138 13783.291551 13831.375822 13708.729325 13472.382605 -3.374243 -3.386325 -3.396117 -3.404155 13702.400730 13841.474717 14201.805090 13853.687662 -2.849397 -2.859877 -2.868371 -2.875344 13552.542744 13691.295242 13966.138692 14158.968410 -2.401377 -2.410445 -2.417795 -2.423829 13352.846835 13435.824057 13535.099613 13490.317440 -2.019771 -2.027597 -2.033942 -2.039151 13169.327464 13155.153359 13151.464453 13005.798713 -1.695438 -1.702177 -1.707640 -1.712126 13097.815543 12975.114723 12382.208005 10640.747936 -1.420377 -1.426165 -1.430858 -1.434712 13195.458000 13268.138404 13375.015078 12305.787444 -1.187602 -1.192561 -1.196583 -1.199887 13292.337914 13424.805594 13760.301651 15037.495865 -0.991032 -0.995272 -0.998711 -1.001535 13339.238187 13553.149506 13745.647298 13077.817365 -0.825387 -0.829004 -0.831937 -0.834346 13270.061672 13554.853199 14346.674511 15125.965819 -0.686097 -0.689174 -0.691670 -0.693721 13073.763168 13259.627078 13499.062035 13534.178921 -0.569213 -0.571825 -0.573944 -0.575685 12854.709659 13022.113145 13500.046554 13387.349046 -0.471334 -0.473547 -0.475342 -0.476817 12677.262217 12741.581158 12927.916159 13575.414905 -0.389541 -0.391410 -0.392928 -0.394174 12586.356617 12643.076321 12251.465082 11173.865390 -0.321329 -0.322906 -0.324185 -0.325236 12508.236198 12819.747458 13618.350983 13938.176904 -0.264560 -0.265886 -0.266963 -0.267847 12262.317700 12681.913485 13847.592718 15319.477982 -0.217410 -0.218524 -0.219427 -0.220170 11778.079293 12109.127979 13183.620635 15689.507552 -0.178328 -0.179261 -0.180018 -0.180640 11186.681254 11233.057555 11333.393446 12307.572561 -0.145999 -0.146779 -0.147411 -0.147931 10724.103650 10619.465054 9802.431131 7508.424815 -0.119309 -0.119959 -0.120487 -0.120920 10412.067832 10632.071210 10417.830570 8108.270514 -0.097318 -0.097859 -0.098298 -0.098659 9960.411714 10656.522322 12874.527670 16395.919702 -0.079234 -0.079683 -0.080048 -0.080348 9143.020954 9720.938382 11179.853945 13601.470591 -0.064393 -0.064765 -0.065067 -0.065316 8126.386456 8507.296020 9406.397851 11064.558714 -0.052236 -0.052544 -0.052794 -0.052999 7135.434587 7291.755770 7565.490202 8247.399539 -0.042297 -0.042551 -0.042758 -0.042927 6317.768861 6353.392220 6116.195270 6035.868873 -0.034188 -0.034397 -0.034567 -0.034707 5670.653700 5817.333426 5654.821840 3393.302351 -0.027584 -0.027756 -0.027895 -0.028010 5033.328159 5471.490376 6700.888966 8859.226105 -0.022215 -0.022356 -0.022471 -0.022565 4248.155191 4697.929615 5881.596181 8902.457445 -0.017860 -0.017975 -0.018069 -0.018146 3375.687169 3694.417886 4402.908128 5712.829990 -0.014333 -0.014427 -0.014504 -0.014567 2550.110136 2724.834120 3030.462718 3482.072479 -0.011482 -0.011559 -0.011621 -0.011673 1863.093632 1951.119217 2076.668355 2178.736023 -0.009182 -0.009245 -0.009296 -0.009337 1336.622852 1382.032632 1437.644772 1481.346548 -0.007330 -0.007381 -0.007422 -0.007456 950.929333 976.134653 1003.310241 1024.699986 -0.005841 -0.005883 -0.005916 -0.005944 674.647007 689.758793 704.502885 716.280323 -0.004647 -0.004680 -0.004707 -0.004730 478.753087 488.378773 497.138076 504.239548 -0.003690 -0.003717 -0.003739 -0.003757 340.385628 346.770007 352.331521 356.888897 -0.002926 -0.002947 -0.002965 -0.002979 242.692546 247.033753 250.720712 253.761858 -0.002315 -0.002333 -0.002347 -0.002359 173.619724 176.616153 179.125396 181.202709 -0.001829 -0.001843 -0.001855 -0.001864 124.662728 126.750332 128.485160 129.924105 -0.001443 -0.001454 -0.001463 -0.001470 89.856477 91.320150 92.531410 93.537003 -0.001136 -0.001145 -0.001152 -0.001158 65.024618 66.055820 66.907197 67.614271 -0.000893 -0.000900 -0.000906 -0.000910 47.242146 47.971675 48.573146 49.072705 -0.000700 -0.000706 -0.000711 -0.000714 34.457220 34.975296 35.402025 35.756420 -0.000548 -0.000553 -0.000557 -0.000560 25.227090 25.596305 25.900157 26.152474 -0.000429 -0.000432 -0.000435 -0.000437 18.534327 18.798229 19.015132 19.195250 -0.000334 -0.000337 -0.000339 -0.000341 13.659074 13.847911 14.002620 14.131175 -0.000260 -0.000262 -0.000264 -0.000265 10.090312 10.224791 10.333800 10.424618 -0.000201 -0.000203 -0.000205 -0.000206 7.464448 7.557959 7.630697 7.691699 -0.000155 -0.000156 -0.000158 -0.000159 5.523349 5.583017 5.620804 5.651968 -0.000118 -0.000120 -0.000121 -0.000122 4.086445 4.114387 4.106772 4.087015 -0.000088 -0.000090 -0.000092 -0.000093 3.031885 3.029990 2.963871 2.785121 -0.000062 -0.000067 -0.000070 -0.000071 2.280148 2.257669 2.150705 1.888878 1.387192 0.931208 0.667579 0.493022 0.369887 0.280004 0.213119 0.162784 0.124637 0.095596 0.073415 0.056435 0.043412 0.033411 0.025721 0.019803 0.015247 0.011736 0.009031 0.006946 0.005339 0.004101 0.003148 0.002414 0.001849 0.001415 0.001082 0.000826 0.000630 0.000480 0.000365 0.000277 0.000210 0.000159 0.000120 0.000091 0.000068 0.000051 0.000038 0.000028 0.000020 0.000014 0.000009 0.000005 0.000001 -0.000003 -0.000007 -0.000013 -0.000020 -0.000031 -0.000043 -0.000050 -0.000053 -0.000055 1.776730 1.747344 1.642418 1.442026 1.156523 0.875908 0.654998 0.492635 0.372793 0.283401 0.216154 0.165266 0.126592 0.097110 0.074579 0.057327 0.044096 0.033935 0.026123 0.020112 0.015484 0.011919 0.009171 0.007054 0.005423 0.004166 0.003198 0.002452 0.001879 0.001438 0.001100 0.000840 0.000641 0.000488 0.000371 0.000282 0.000214 0.000162 0.000122 0.000092 0.000069 0.000052 0.000039 0.000028 0.000020 0.000014 0.000009 0.000005 0.000001 -0.000003 -0.000007 -0.000012 -0.000018 -0.000026 -0.000033 -0.000039 -0.000042 -0.000043 1.481104 1.452843 1.363559 1.212603 1.017151 0.813843 0.633728 0.487558 0.373436 0.285686 0.218603 0.167408 0.128332 0.098478 0.075639 0.058142 0.044722 0.034415 0.026491 0.020395 0.015701 0.012086 0.009300 0.007154 0.005499 0.004225 0.003243 0.002488 0.001906 0.001459 0.001116 0.000852 0.000650 0.000495 0.000377 0.000286 0.000217 0.000164 0.000124 0.000094 0.000071 0.000053 0.000039 0.000029 0.000021 0.000014 0.000009 0.000005 0.000001 -0.000003 -0.000007 -0.000012 -0.000017 -0.000023 -0.000028 -0.000032 -0.000035 -0.000037 1.359964 1.335704 1.255757 1.125699 0.961293 0.786899 0.624773 0.486907 0.375725 0.288593 0.221284 0.169631 0.130094 0.099846 0.076691 0.058949 0.045339 0.034888 0.026854 0.020673 0.015915 0.012250 0.009427 0.007251 0.005574 0.004283 0.003288 0.002522 0.001933 0.001480 0.001132 0.000864 0.000659 0.000502 0.000382 0.000291 0.000220 0.000167 0.000126 0.000095 0.000072 0.000054 0.000040 0.000029 0.000021 0.000015 0.000009 0.000005 0.000001 -0.000003 -0.000007 -0.000011 -0.000016 -0.000021 -0.000026 -0.000030 -0.000033 -0.000034
</DataArray>
<DataArray type="Float64" Name="Velocity" NumberOfComponents="3" format="ascii">