<VTKFile type="PolyData">
<PolyData>
<Piece NumberOfPoints="2064" NumberOfVerts="2064" NumberOfLines="0" NumberOfStrips="0" NumberOfPolys="0">
<PointData>
<DataArray type="Float64" Name="Pressure" format="ascii">
 10244.345548 10234.304536 10214.655169 10181.345604 10130.936073 10063.004201 9982.315405 9899.491342 9825.382283 9762.664332 9708.658286 9664.001134 9632.596181 9613.756031 9600.944373 9586.937488 9566.774309 9537.618422 9497.982220 9447.204246 9385.154814 9312.058586 9228.377080 9134.724992 9031.808349 8920.378464 8801.198191 8675.017975 8542.559703 8404.506638 8261.497995 8114.126900 7962.940742 7808.443107 7651.096663 7491.326536 7329.523850 7166.049194 7001.235876 6835.392883 6668.807528 6501.747802 6334.464534 6167.193574 6000.158492 5833.574909 5667.659077 5502.646755 5338.836406 5176.688173 5017.044224 4861.582241 4713.576474 4578.614092 4464.065524 4376.611458 4320.041637 4294.428077 10232.378696 10224.467784 10208.493813 10179.096870 10129.855142 10058.816528 9970.120893 9879.732566 9807.337946 9751.555160 9699.157695 9650.391988 9618.466334 9603.819496 9594.968238 9583.015939 9563.679538 9534.831783 9495.320886 9444.625446 9382.667232 9309.684691 9226.138215 9132.636396 9029.878359 8918.609357 8799.587529 8673.559971 8541.246409 8403.328906 8260.446200 8113.191458 7962.112464 7807.713409 7650.457676 7490.771151 7329.045698 7165.642603 7000.895794 6835.114789 6668.587314 6501.581599 6334.348407 6167.122896 6000.126549 5833.569678 5667.655668 5502.589727 5338.598942 5175.981120 5015.230231 4857.377283 4704.933909 4563.703879 4443.437685 4353.058465 4295.795082 4270.236748 10211.112688 10206.865756 10200.457997 10183.499466 10137.161767 10059.361443 9946.546669 9828.519148 9766.850247 9738.073606 9689.187317 9619.533263 9585.043941 9585.640523 9586.858007 9578.469565 9560.534329 9532.233310 9492.944404 9442.363625 9380.498440 9307.616958 9224.186137 9130.812367 9028.189955 8917.059239 8798.174271 8672.279124 8540.091502 8402.292289 8259.519693 8112.366831 7961.381758 7807.069146 7649.892975 7490.279767 7328.622026 7165.281633 7000.593054 6834.866254 6668.389279 6501.430466 6334.240269 6167.052635 6000.085774 5833.541891 5667.604832 5502.433136 5338.142807 5174.767880 5012.180033 4849.982400 4687.796106 4530.123977 4394.062522 4298.299647 4241.345087 4216.747023 10177.616009 10176.582946 10184.540951 10204.256864 10159.619918 10052.398117 9898.063215 9716.558576 9682.674853 9738.865493 9700.242257 9538.853974 9525.982446 9576.762472 9581.624397 9575.230333 9558.064377 9530.036121 9490.843078 9440.314143 9378.506436 9305.702414 9222.369182 9129.108301 9026.608197 8915.603858 8796.845051 8671.072699 8539.002383 8401.313704 8258.644240 8111.586957 7960.690094 7806.458720 7649.357335 7489.813040 7328.218921 7164.937420 7000.303508 6834.627586 6668.198033 6501.283362 6334.133910 6166.982894 6000.046400 5833.521266 5667.578265 5502.344360 5337.858776 5173.964563 5010.033514 4844.218957 4671.140456 4472.906360 4301.314868 4206.479696 4155.838195 4134.534640 10131.733112 10126.151757 10131.157438 10187.048521 8127.004610 10026.714803 8794.526854 9009.421943 8613.557519 8334.713416 6654.332747 8411.204969 8512.990003 8521.408017 7146.285465 8826.608143 9841.181300 6662.768589 8000.798006 6372.144331 8059.118842 8781.910041 9492.970583 6760.904024 7195.507163 8835.096366 6787.305628 7987.584972 6733.749905 6583.902340 9893.573136 6965.172905 6973.500779 8930.076743 9692.091803 8430.010416 7566.181795 8969.166706 8635.123085 6730.673531 17038.110930 9075.183563 6800.811665 9485.547624 4134.582513 4077.215209 4043.207476 4027.957179 10081.777949 10062.102528 10010.820331 9945.658646 7225.693492 7319.652820 6572.785770 9129.147868 6919.087563 6572.034828 8056.454517 9259.623995 9935.111317 6509.387408 8569.479265 9958.431952 7121.360672 9771.030247 6564.307736 6790.252303 9433.416692 8308.509786 9061.844012 9266.899072 7599.506743 8753.785043 9348.869221 8703.215697 7080.314735 6938.879304 6659.714488 7133.205305 6745.475792 9053.552203 8322.144259 10000.428536 7953.080826 9911.135299 8934.577766 7107.171411 8912.099840 7483.374080 7097.532894 9128.719242 3946.803628 3930.208112 3913.002825 3904.213940 10043.025205 10019.832958 9957.087923 9830.421299 8938.667657 8368.093349 5965.413204 7857.372738 8635.781531 6501.720343 8482.998503 6363.822876 6983.792202 6805.997339 6646.925675 7233.138635 6530.227268 9926.800459 6616.226245 6228.990459 9200.239423 7099.951766 7597.072927 7289.272848 7031.323644 8808.453763 6992.932878 9984.490958 6354.991230 6758.352339 6700.362124 6453.422009 9782.318087 9824.594782 7320.545354 8703.885098 6744.604162 8123.364375 9414.181366 7761.909402 9662.460733 6510.315931 8250.305527 8712.861093 3788.299861 3782.621979 3775.251681 3770.982074 10020.947483 10004.330729 9975.225202 9951.772709 10262.535317 6583.550310 7502.766650 7330.044720 7710.257010 7166.661079 7166.797815 6989.904562 6116.659162 9463.694006 11156.858477 10079.499022 7299.224290 7297.568302 6603.705014 8914.885217 9806.633125 6913.526770 8493.987392 9337.896484 7210.892925 6422.820841 9616.941899 6244.567847 9902.655424 6287.849234 6567.226212 9679.508313 9194.878635 9870.466397 9314.398460 7002.601367 9985.335063 7923.709619 10154.536082 9974.874336 7956.044380 6905.253304 10099.298942 8775.924460 3640.826095 3638.784711 3635.787157 3633.946241 10011.424735 9998.095926 9961.936374 9895.570495 9282.109364 7256.855540 8733.079143 8986.687148 6947.526576 8632.502822 9478.969128 8772.688813 10864.826027 6333.049472 6595.692548 7465.687431 6811.227366 7220.477220 6957.539574 10187.128347 9497.112731 9924.755802 6657.678209 8906.404706 9111.368861 6580.108665 8254.320540 9858.862220 6218.295848 6678.352453 8871.113492 6601.257815 9065.806093 8831.420882 7289.139972 6928.421908 8830.563888 8990.841050 7831.620361 6964.139914 7685.154819 16466.192148 6816.400293 9533.727245 3498.874925 3498.199054 3497.058955 3496.354538 10011.071645 10006.620206 9994.521701 9964.567680 11100.430409 9042.502689 10432.598805 20048.220407 10361.885906 11982.039283 6521.256030 13674.565368 9830.480184 10016.148732 9267.815373 14127.098290 7423.209457 6293.110531 10263.043016 24824.083110 18784.546190 8906.076118 8176.728013 9784.040317 7093.904647 9092.666023 10403.474832 9328.799572 7862.909424 8289.305676 6660.181749 6985.528381 7651.464519 9333.295880 9653.992989 9701.707532 6844.504574 8158.262584 8430.503671 6772.194460 6717.254462 9571.099059 9190.777377 7169.247464 3360.491329 3360.361725 3360.003450 3359.800509 10012.590492 10018.592454 10033.119886 10046.121157 16354.976574 8629.924269 14828.880965 11584.731372 8353.288281 10051.719300 11227.148472 12322.338425 10992.515075 20071.575969 11544.814401 11741.613395 12777.402069 9565.639905 11350.669636 21756.009459 16998.568823 10389.248159 9822.645320 13353.579878 7699.459890 24948.007570 11525.970531 8871.920648 8318.604761 9010.202671 6639.902464 9437.584219 9396.576480 6765.145869 9978.935979 9581.291554 7278.129320 6921.130894 6680.288518 8582.011623 9493.134017 7190.085826 10131.376646 9240.150497 3224.932299 3225.028836 3224.999998 3225.013314 10005.828311 10021.931226 10055.125828 10092.923312 14466.697619 11476.942188 16297.693941 11904.120458 14906.566521 20944.802088 7085.028620 13881.302509 11732.455370 6775.106464 21201.606806 12498.359234 9777.204383 10594.016025 20305.426458 12093.991887 11240.396234 20311.051617 13741.839912 11725.142680 8159.510216 22405.513776 22373.208487 7153.886891 6318.242691 9218.618619 17072.883821 9704.985454 9653.708960 8949.047755 7260.803360 8561.280906 6818.718479 7847.436094 8750.239302 6861.062967 7380.491141 6969.393869 9734.547564 7746.725646 3091.911297 3092.103820 3092.214674 3092.320887 9979.880483 10003.903536 10074.297597 10212.941134 13491.388494 11411.834815 10121.788078 15738.016658 17285.802054 21611.259071 22038.564994 21233.485278 20079.859565 13183.900840 9335.550684 13954.979794 10706.314108 11793.988895 11820.843776 10559.370505 12837.459668 14087.090000 6228.403974 8195.689116 12230.552174 12355.580730 8898.692550 14417.863690 11576.781424 10194.063167 8058.987678 11983.108083 6767.116153 6322.089826 9130.245912 13637.432204 6294.610321 6838.444362 9790.328799 8370.228623 9392.576661 7378.556826 7065.506045 8641.933330 2961.320960 2961.555378 2961.726211 2961.872721 9928.280479 9942.002452 9976.818306 10044.260119 22463.995147 13591.672707 11444.595595 9961.179148 14555.148082 21476.244520 9476.088560 13355.816074 16538.942698 12761.770174 10198.792068 15008.574639 14914.593356 21191.027322 15907.574810 16888.928334 11114.299284 6426.526215 10841.772353 12248.849288 12449.098950 15960.020987 21907.741359 9725.993125 11664.043642 10861.157520 12909.353032 8645.882152 6538.930212 6422.213931 10879.246188 19126.666109 11326.492331 6976.959843 6912.479938 9545.581128 14044.599863 8655.286166 7166.037494 7997.430836 2833.124081 2833.377501 2833.574643 2833.739039 9861.139618 9858.998739 9840.040381 9821.024759 8846.680406 16569.768170 17242.936112 16208.138033 10468.266118 11422.786918 7013.533341 17044.210008 11888.865969 10568.737625 10563.199934 11400.716288 12116.018253 15813.984698 11789.857982 13625.159114 16812.032980 10665.060892 11230.322922 12318.507982 14087.163588 16520.618915 15387.513846 8116.560902 6232.563370 24132.597384 14825.027014 6678.223984 19814.298909 9770.204539 11105.783154 22881.414719 11551.206303 12798.182709 8284.831465 8512.455648 6994.122747 7334.970661 6858.432547 7321.196856 2707.309397 2707.571872 2707.780917 2707.953536 9794.193868 9788.154688 9754.827355 9679.691482 11249.364545 19702.650499 10830.086379 7239.163659 10114.016118 9792.762345 7151.852810 7884.332056 15787.102226 10461.006877 9670.823504 14651.386650 21873.361271 9353.596916 10759.289779 9594.446252 14472.594412 6444.061360 8883.470801 12124.434583 7819.386615 21113.205011 15960.479074 24638.635851 7850.107133 14479.496466 22077.203740 7146.925446 11338.846742 16071.055365 19017.594845 12882.003525 11755.805578 17170.864986 12493.507879 10996.542281 17437.925945 6261.683792 16088.896870 6255.146415 2583.873463 2584.140455 2584.355068 2584.531609 9730.726061 9735.726697 9739.205943 9720.498233 11079.509845 10023.197424 6450.164811 10659.802337 22997.281084 6512.485631 23756.591257 10975.158119 9351.820315 7022.299500 18753.406848 13785.742229 6888.386984 7743.202071 6962.972904 11028.212624 7101.681818 10789.661798 10587.549053 6316.366577 6197.219704 9798.231099 11023.083783 14325.792953 6761.902688 17294.860658 10887.173921 11028.665941 11802.132773 20152.123565 19008.514505 8946.759108 11779.593336 10404.466274 11545.879595 7703.837844 11865.830700 14515.185278 6765.173613 6474.344644 2462.813259 2463.082500 2463.299732 2463.478150 9657.868342 9677.455024 9723.004510 9776.499315 18513.265179 14606.084386 11203.325709 6155.398401 10193.091914 12058.440520 10762.622867 6164.707797 7316.160352 20162.599059 12278.242783 10638.138410 7278.039104 18912.137236 7887.144544 10997.306868 6282.113309 18663.301749 18271.476430 20436.308140 13366.350641 17132.015222 9109.903306 9156.387411 6723.126903 14810.143201 12036.618442 6852.876447 16524.216928 7390.095355 14494.882156 10459.125265 10586.759767 13130.123909 7392.847324 25919.377660 11691.311988 14173.130673 11372.481916 13154.503799 2344.123224 2344.393410 2344.611741 2344.790945 9558.336126 9583.631802 9655.294342 9767.780176 11913.326733 10407.493597 7311.087240 16732.374710 12977.831966 6528.250687 8904.016123 23676.006937 11934.561569 9667.469602 7718.317846 6741.184374 9510.572980 18526.355651 22280.099830 7952.179910 6825.991268 6257.715104 7635.075023 20986.705262 6746.166433 8539.640308 6070.712864 9424.017076 8676.856232 9669.223505 7481.488104 7750.652589 12196.192587 6598.663713 6599.990599 14693.287067 19959.453209 18813.041288 9054.369161 12664.488443 10083.637111 7362.189520 10653.785808 10724.696681 2227.794148 2228.064394 2228.282912 2228.462219 9425.425098 9438.086309 9465.764030 9514.787897 18053.933604 6645.111393 6212.153780 8257.973420 9692.583332 9289.880924 20209.056706 16257.280154 10016.406138 9374.435606 7609.399699 13937.147928 7036.428682 8027.064793 15642.253898 13973.597784 9671.413074 12786.661769 20128.131701 5193.164321 9416.206270 7837.428639 14466.260328 17580.952699 6471.645228 6915.999547 11233.300993 7194.913431 10779.319257 22583.497795 6554.759449 9787.286592 9773.443948 9488.891120 11428.306645 10508.476022 10732.022661 22957.759039 11945.305386 10947.092996 2113.812834 2114.082445 2114.300505 2114.479413 9271.405581 9269.719995 9254.379258 9221.697174 6511.497297 11092.313423 11862.713274 7452.905027 7334.139791 8916.004961 12558.859157 9120.535912 9708.507298 9948.338745 9266.379939 7584.201199 24401.705966 6670.821754 6421.567648 10756.947361 9437.102852 9149.191598 8085.915672 18325.915197 12727.867664 8015.277768 21481.136567 15940.214661 9412.287778 9625.549761 12277.133349 18809.023750 9296.182355 11736.822476 9879.331155 10604.929078 6186.310746 6556.941868 18661.684898 7231.514895 18410.498221 9560.975491 19187.564243 18117.176903 2002.162081 2002.430453 2002.647534 2002.825628 9111.812011 9105.592983 9088.251800 9049.597660 10247.929289 10321.743273 17931.894881 6663.479885 7540.269892 8930.769648 -1910.445109 7251.728208 7880.727918 6354.091714 6331.151798 6574.228275 8406.281941 10364.088316 8683.315982 7153.575187 7000.020390 10298.463547 6746.600132 8182.506118 8081.750099 9795.544029 9890.440952 9625.654098 6585.621827 8737.019648 9410.174583 8038.420169 9632.764485 6616.173755 8921.983561 6783.531692 17065.001235 7301.805206 8719.680001 6614.439838 6579.879583 15907.956603 9944.466793 21915.634331 1892.820793 1893.087377 1893.303022 1893.479930 8952.793737 8944.504427 8936.288148 8939.088563 7228.409671 6960.877165 8362.610720 18826.365421 7122.596502 6880.400734 18292.339670 8938.859737 14931.541862 -9511.760391 6912.954076 9696.757553 8753.763168 20918.346725 5495.459284 -15169.774574 7284.260835 6573.906409 8548.337877 16722.649518 18158.721327 11455.065873 6198.223651 8477.899938 9242.432212 6233.555716 6699.639356 6392.222113 7153.161096 9825.872954 8286.828045 16051.473743 9569.910890 7216.953449 22630.399947 9030.186714 9909.189150 9063.041718 10022.300833 17545.117128 1785.764152 1786.028438 1786.242226 1786.417607 8796.456702 8782.325360 8742.304848 8683.741591 8185.866385 9553.436868 6516.672979 11576.169937 5816.409864 9485.095110 6805.158666 7644.389494 7162.621510 8748.191456 6454.911698 9171.205655 9628.025674 6706.647102 6877.493052 7082.141928 10100.793831 10119.381863 9754.386141 19817.670369 6610.618375 21274.157923 12200.326465 9850.603207 8105.924711 7589.232235 10029.775852 9534.222997 9004.708169 6462.338402 9170.249523 8438.609274 8849.957336 10059.028999 7470.958368 6937.254542 7955.094440 7317.942462 9827.781886 7258.709877 1680.963811 1681.225319 1681.436860 1681.610395 8647.275252 8635.005166 8612.893750 8580.822463 1578.388103 1578.646381 1578.855310 1579.026699 8507.382594 8496.598570 8476.318081 8475.911832 1478.002251 1478.256878 1478.462852 1478.631815 8381.984812 8373.156372 8369.494200 8407.339864 1379.768597 1380.019179 1380.221881 1380.388158 8277.203915 8265.674642 8240.924965 8197.852999 1283.646830 1283.893004 1284.092141 1284.255491 8196.977748 8189.660873 8188.654631 8181.227412 1189.594228 1189.835665 1190.030970 1190.191174 8133.618278 8124.645297 8110.799193 8107.986220 1097.565917 1097.802321 1097.993554 1098.150418 8077.334797 8072.981076 8024.136958 7863.726449 1007.515140 1007.746249 1007.933202 1008.086553 8011.949659 8036.437234 8140.331781 8331.917431 919.393540 919.619135 919.801628 919.951322 7911.131030 7926.070049 7972.725738 8092.791425 833.151473 833.371374 833.549264 833.695182 7781.756784 7775.509924 7771.412275 7802.184437 748.738327 748.952400 749.125578 749.267632 7646.898680 7617.019057 7527.288584 7353.988105 666.102876 666.311033 666.479429 666.617563 7529.074554 7498.947446 7419.449132 7293.945566 585.193646 585.395852 585.559438 585.693630 7431.958262 7412.759891 7385.516477 7360.531827 505.959317 506.155589 506.314381 506.444644 7348.326206 7330.724901 7287.148636 7223.829611 428.349136 428.539551 428.693612 428.819997 7275.930904 7264.872464 7240.469829 7186.043926 352.313369 352.498063 352.647502 352.770102 7210.188244 7202.864278 7206.478334 7236.273173 277.803759 277.982931 278.127913 278.246861 7149.387361 7136.569329 7093.839342 7086.545400 204.774020 204.947938 205.088678 205.204154 7098.155496 7096.011387 7090.839464 7109.950857 133.180348 133.349347 133.486117 133.598345 7051.019776 7056.129152 7088.643857 7157.189939 62.981938 63.146423 63.279554 63.388804 7007.226187 6999.229166 6978.238161 6950.110846 -5.858475 -5.698025 -5.568147 -5.461554 6982.761986 6968.400627 6903.243533 6729.371602 -73.374072 -73.217105 -73.090033 -72.985732 6984.967243 6991.008809 7003.045955 7016.345031 -139.593403 -139.439297 -139.314526 -139.212101 6997.552465 7023.296109 7094.385722 7224.049418 -204.539850 -204.387909 -204.264876 -204.163865 7002.367774 7028.740106 7101.396470 7191.926862 -268.231089 -268.080549 -267.958636 -267.858531 6996.819546 7001.668381 7025.544224 7076.552313 -330.678589 -330.528618 -330.407152 -330.307401 6991.625989 6957.563220 6874.628781 6860.649108 -391.887117 -391.736823 -391.615081 -391.515091 6992.790402 6917.224302 6707.232333 6389.209201 -451.854299 -451.702732 -451.579946 -451.479086 6987.861637 6874.897967 6646.524366 6458.941646 -510.570213 -510.416373 -510.291733 -510.189339 6967.300851 6808.813068 6354.651709 5732.659295 -568.017040 -567.859883 -567.732547 -567.627928 6955.241155 6845.123303 6562.303147 6121.265660 -624.168775 -624.007224 -623.876321 -623.768763 6946.418879 6911.123201 6869.717446 6890.592180 -678.991011 -678.823966 -678.688606 -678.577379 6926.908050 6933.927235 6936.760718 6906.432427 -732.440799 -732.267144 -732.126427 -732.010793 6897.263121 6943.704721 7049.268930 7087.095581 -784.466589 -784.285208 -784.138232 -784.017452 6849.014936 6911.081293 7085.469856 7321.200823 -835.008267 -834.818056 -834.663928 -834.537271 6780.156806 6825.642868 6902.918860 6971.106337 -883.997283 -883.797159 -883.635005 -883.501754 6704.556127 6737.305106 6825.879453 6985.611141 -931.356872 -931.145788 -930.974764 -930.834229 6635.426485 6638.686605 6613.234704 6573.103431 -977.002377 -976.779337 -976.598638 -976.450159 6594.302848 6590.921142 6554.192797 6436.835633 -1020.841668 -1020.605737 -1020.414608 -1020.257569 6587.102823 6588.324745 6613.878182 6667.094653 -1062.775653 -1062.525972 -1062.323719 -1062.157551 6612.360585 6601.948990 6547.452799 6422.467476 -1102.698881 -1102.434674 -1102.220673 -1102.044866 6680.660652 6675.385392 6679.168215 6725.134137 -1140.500222 -1140.220812 -1139.994518 -1139.808625 6793.627071 6787.984054 6720.147447 6537.412231 -1176.063629 -1175.768445 -1175.529396 -1175.333042 6949.618303 6976.304309 7061.979514 7181.497509 -1209.268960 -1208.957545 -1208.705373 -1208.498256 7125.170253 7153.296065 7202.771845 7258.925463 -1239.992849 -1239.664866 -1239.399300 -1239.181199 7315.723378 7348.044354 7394.332449 7376.326003 -1268.109620 -1267.764857 -1267.485726 -1267.256504 7514.562614 7556.606185 7645.282867 7758.226919 -1293.492226 -1293.130597 -1292.837835 -1292.597437 7710.020744 7752.933135 7840.034273 7914.073897 -1316.013192 -1315.634741 -1315.328383 -1315.076839 7897.632085 7929.494266 8007.439238 8168.781167 -1335.545557 -1335.150452 -1334.830635 -1334.568058 8085.658334 8094.727848 8061.222075 7965.955170 -1351.963788 -1351.552321 -1351.219280 -1350.945866 8289.600886 8307.113464 8343.602250 8425.848636 -1365.144662 -1364.717240 -1364.371305 -1364.087323 8504.703130 8513.720570 8568.605286 8798.324079 -1374.968090 -1374.525228 -1374.166816 -1373.872609 8738.182060 8707.659956 8582.823733 8372.276862 -1381.317874 -1380.860186 -1380.489793 -1380.185768 9013.318173 8978.080960 8865.843944 8680.900771 -1384.082385 -1383.610572 -1383.228765 -1382.915387 9321.047807 9299.360776 9232.310163 9092.338597 -1383.155153 -1382.669992 -1382.277397 -1381.955180 9627.251124 9607.535864 9595.072132 9619.356156 -1378.435353 -1377.937680 -1377.534973 -1377.204471 9903.276336 9844.982350 9687.472451 9474.227389 -1369.828183 -1369.318882 -1368.906777 -1368.568573 10147.921117 10070.545379 9863.622056 9659.774320 -1357.245142 -1356.725128 -1356.304363 -1355.959064 10355.752175 10285.198653 10115.330464 10096.214752 -1340.604186 -1340.074391 -1339.645719 -1339.293941 10522.528167 10451.168971 10329.786821 10241.066825 -1319.829780 -1319.291138 -1318.855315 -1318.497675 10670.581154 10566.064637 10315.565264 9899.568570 -1294.852844 -1294.306279 -1293.864049 -1293.501159 10850.297240 10743.513223 10491.839946 10153.074420 -1265.610598 -1265.057011 -1264.609102 -1264.241557 11084.878956 11005.559690 10861.223166 10673.789059 -1232.046326 -1231.486584 -1231.033698 -1230.662072 11362.063871 11298.700063 11206.826459 11136.238558 -1194.109059 -1193.543987 -1193.086791 -1192.711631 11672.523833 11596.500159 11456.706341 11338.652327 -1151.753188 -1151.183565 -1150.722694 -1150.344518 12033.980803 11938.978035 11721.847544 11449.018418 -1104.938043 -1104.364601 -1103.900660 -1103.519959 12469.754495 12381.593280 12176.311823 11781.812094 -1053.627416 -1053.050855 -1052.584438 -1052.201689 12971.220187 12919.006872 12830.552832 12691.481916 -997.789060 -997.210077 -996.741821 -996.357522 13497.225221 13465.952578 13465.146295 13604.503076 -937.394136 -936.813516 -936.344224 -935.958978 14023.054295 13968.567753 13821.101610 13599.650637 -872.416560 -871.835372 -871.366319 -870.981033 14567.422130 14520.167770 14429.388322 14289.806178 -802.832096 -802.252177 -801.785821 -801.402187 15133.417468 15100.094896 15059.190603 15018.452211 -728.616813 -728.041912 -727.583609 -727.205240 15712.886000 15677.381637 15635.064005 15655.508942 -649.743972 -649.182483 -648.744569 -648.379709 16311.214699 16258.867818 16106.989125 15844.728389 -566.177084 -565.648616 -565.260159 -564.928116 16949.733506 16917.224698 16828.816938 16651.900764 -477.853694 -477.404950 -477.135050 -476.881382 17629.235122 17637.287107 17661.673602 17754.673149 -384.646510 -384.390283 -384.403740 -384.335575 18327.013670 18369.720779 18410.935677 18381.119924 -286.268272 -286.482345 -287.172367 -287.537753 19005.128344 19099.174746 19271.549505 19550.094931 -182.030672 -183.425744 -185.727543 -187.079483 19604.340963 19746.635278 20021.445759 20571.543069 -70.189165 -74.732305 -80.833711 -84.300399 20081.222870 20270.725262 20660.194999 21175.869100 54.075646 40.101869 25.438763 18.018785 20416.999660 20642.847557 21196.142151 21914.094671 206.632996 157.489584 128.079224 114.953471 20606.555505 20806.906292 21235.894356 21845.526768 21958.316901 22856.537561 22775.680456 23231.387982 23898.922719 22522.836409 20648.196946 19606.367501 19972.348761 19593.450148 19385.185958 19274.223926 17097.861289 15201.810826 14809.126654 13579.324101 12165.663133 10728.518705 9702.864720 9006.639762 8428.333246 7824.788466 7273.980311 6773.751936 6319.212512 5904.808745 5525.135997 5175.238173 4850.723792 4547.795128 4263.230193 3994.338227 3738.901612 3495.112868 3261.512515 3036.931323 2820.438819 2611.298734 2408.931223 2212.881193 2022.791582 1838.379877 1659.414900 1485.687889 1316.964491 1152.885016 992.726810 834.771478 674.345697 496.310951 345.623588 262.722198 218.353686 199.771531 20687.331982 20849.773402 21158.454010 21571.281567 21935.472918 22219.943776 21973.871141 22308.612164 22534.975165 21700.290618 20779.347098 20079.899973 19570.600503 19100.865232 18508.955347 17722.503836 16592.412512 15370.912916 14257.766159 13134.190895 11988.769116 10902.297042 9952.163896 9148.973069 8457.798968 7842.307940 7286.720603 6783.997885 6327.783229 5912.071729 5531.304487 5180.470476 4855.155944 4551.550079 4266.419176 3997.060185 3741.242723 3497.146710 3263.300832 3038.525196 2821.880058 2612.621336 2410.162876 2214.044914 2023.907851 1839.470169 1660.508793 1486.839078 1318.289017 1154.657213 995.638680 840.732017 689.487881 545.651873 423.547585 338.266939 287.735550 266.043183 20713.335382 20848.877269 21095.031865 21400.970294 21691.030942 21896.353642 21986.453919 21972.602891 21750.398651 21261.603287 20617.040670 19969.312603 19360.804193 18739.018189 18035.355705 17192.983775 16199.524299 15122.435020 14035.316760 12956.430880 11898.386603 10897.728578 9990.589979 9189.640790 8485.099334 7859.519238 7298.910121 6793.464314 6335.536422 5918.576163 5536.807057 5185.132938 4859.105473 4554.896819 4269.261288 3999.484764 3743.325814 3498.953503 3264.886268 3039.934930 2823.151622 2613.785437 2411.244814 2215.066307 2024.889207 1840.435645 1661.496337 1487.923566 1319.636445 1156.652546 999.185595 847.925556 704.825725 574.605550 465.223124 383.763233 332.468432 309.747268 20725.918729 20851.115303 21068.551993 21334.581930 21585.836429 21765.840279 21837.321324 21771.365330 21525.567083 21086.591606 20514.140928 19891.168550 19255.140958 18588.007046 17847.717204 16999.418619 16040.198531 15006.672710 13946.621744 12892.026059 11866.612601 10897.267941 10008.334890 9211.299464 8503.226344 7873.261486 7309.555923 6802.103913 6342.766904 5924.710167 5542.028695 5189.573918 4862.875977 4558.095871 4271.979077 4001.802429 3745.314896 3500.675788 3266.394143 3041.272121 2824.354194 2614.882917 2412.261421 2216.022369 2025.803121 1841.327248 1662.393778 1488.878533 1320.758592 1158.185624 1001.662250 852.413722 713.013094 587.954911 483.165802 403.907608 352.999087 330.152256
</DataArray>
<DataArray type="Float64" Name="Velocity" NumberOfComponents="3" format="ascii">