<VTKFile type="PolyData">
<PolyData>
<Piece NumberOfPoints="2064" NumberOfVerts="2064" NumberOfLines="0" NumberOfStrips="0" NumberOfPolys="0">
<PointData>
<DataArray type="Float64" Name="Pressure" format="ascii">
 3459.560424 3489.298394 3552.765955 3654.335741 3774.878135 3852.861946 3808.356338 3618.470070 3334.693215 3026.050425 2738.863359 2493.172438 2292.861873 2134.453915 2011.822568 1918.271737 1847.393623 1793.419477 1751.355724 1717.019647 1687.020200 1658.704908 1630.085263 1599.749832 1566.772575 1530.622347 1491.078083 1448.152646 1402.027008 1352.995316 1301.420577 1247.700129 1192.239745 1135.435069 1077.659094 1019.254442 960.529371 901.756562 843.173886 784.986531 727.369959 670.473316 614.422998 559.326211 505.274472 452.347209 400.616039 350.151146 301.033159 253.378198 207.392030 163.480480 122.433428 85.593879 54.716792 31.357830 16.354490 9.628389 3467.582562 3495.909708 3563.234338 3689.571011 3878.340759 4049.330973 4035.176141 3795.099476 3443.293949 3086.139660 2772.206546 2513.274384 2306.285554 2144.112558 2019.026214 1923.663427 1851.345787 1796.194778 1753.169135 1718.060176 1687.456864 1658.687254 1629.742648 1599.191072 1566.086417 1529.878762 1490.330159 1447.438839 1401.373520 1352.418427 1300.928800 1247.296116 1191.921914 1135.198949 1077.498399 1019.161908 960.497382 901.777602 843.240849 785.092910 727.509944 670.641808 614.615538 559.538799 505.503171 452.587305 400.860141 350.384849 301.225128 253.458141 207.205793 162.718407 120.605617 82.275859 50.075137 26.087814 10.980879 4.294458 3471.211720 3493.533379 3553.813146 3707.026996 4056.974325 4548.127258 4618.855060 4182.878396 3646.555311 3180.034596 2816.184532 2536.659866 2320.421144 2153.617771 2025.848385 1928.681265 1855.009928 1798.783548 1754.888891 1719.082920 1687.932984 1658.748936 1629.504331 1598.749444 1565.520836 1529.252281 1489.691064 1446.822523 1400.804496 1351.912325 1300.494235 1246.936364 1191.636350 1134.984244 1077.349482 1019.072728 960.461478 901.788519 843.292427 785.179465 727.626357 670.783533 614.778519 559.719227 505.696949 452.788825 401.059473 350.561140 301.330994 253.382682 206.687665 161.150347 116.681852 74.408291 38.533357 13.462039 -1.402656 -7.781106 3468.219995 3479.409995 3504.834212 3604.714892 4101.277609 5547.411103 5736.189241 4758.334298 3878.549665 3252.738884 2851.509336 2556.180571 2332.784608 2162.267090 2032.236585 1933.477153 1858.570829 1801.342069 1756.625609 1720.153091 1688.475008 1658.886064 1629.344347 1598.384226 1565.026446 1528.689701 1489.107469 1446.252916 1400.273511 1351.436061 1300.081993 1246.592213 1191.360495 1134.774168 1077.200884 1018.980251 960.419276 901.790667 843.333215 785.253582 727.728997 670.910424 614.925871 559.883572 505.874773 452.975734 401.248282 350.737356 301.461832 253.389344 206.370147 159.955212 112.826549 60.608466 16.455115 -7.864558 -20.899835 -26.357955 3453.875951 3465.195027 3468.228684 3427.627230 3798.256329 3891.667726 4434.250742 1575.644605 4142.392653 7966.404979 3743.818218 3561.273137 2712.442307 794.813996 4585.738114 2293.110875 2875.735496 1956.049293 3308.869200 4013.231454 2043.966040 5710.112781 3511.891680 452.652737 3032.218861 2705.774092 3273.360262 5189.420113 3608.191762 1441.742686 2956.690436 3446.668788 1784.020465 4074.833787 3046.222850 2665.975915 3367.914683 5930.010729 331.901132 3551.809276 4108.477815 -869.112463 11687.433064 13319.769410 -23.388298 -37.779092 -46.411664 -50.262641 3406.817561 3445.749372 3565.618239 3774.986425 4179.926401 1858.543557 3604.952201 3702.678739 3013.418166 9445.099705 2107.645706 7566.508465 4005.238690 6254.307866 6717.294877 1538.538951 9223.362782 4451.477453 3635.199588 1767.538393 3182.710534 3867.383371 3738.304670 12636.078851 8336.455781 3817.821059 3639.652720 4726.810532 2847.086768 1285.919669 3897.454867 5017.967216 3734.066263 4430.719845 3613.329024 3962.605120 3665.330608 3787.309982 7570.149137 3069.281908 3305.934823 -1519.494309 3322.670053 269.640207 -67.057259 -71.143986 -75.443791 -77.616722 3284.108445 3340.965635 3538.717906 4011.443770 5036.287919 14756.161734 13833.219358 17143.055999 2318.107385 10574.208141 6577.450404 5364.771824 8759.631154 10078.550078 14728.073946 13714.277777 4569.358958 4564.307469 10062.875131 17507.284016 4037.372790 8955.304916 4915.110954 3393.483519 4543.322412 5724.033565 5504.074443 10533.731300 3857.856737 5981.291096 4855.536790 4409.836760 3804.454170 3578.876492 4366.048475 3606.743460 113.341978 2572.022865 4039.769182 3861.676842 6401.532045 5120.975846 3760.072881 20307.105824 -102.339566 -103.660109 -105.444086 -106.454679 3060.971920 3101.797236 3239.307667 3560.142814 9047.410960 8402.371809 22926.665322 11456.812163 11568.731695 17200.157809 3237.017838 16456.816774 5252.725241 11700.378142 17662.621036 9952.892877 12100.213916 3349.201275 3621.382274 6168.907175 13248.404960 32997.394883 2793.025675 12171.585321 -12014.212921 706.977502 3684.902745 4134.944291 4922.031592 9767.585757 14729.697399 3984.777186 3922.117399 4210.972033 5242.678308 3023.283059 4765.923874 9661.631329 3793.702212 4556.134050 5482.936013 4870.245730 5687.652995 -1035.155241 -133.889905 -134.286161 -134.953163 -135.342176 2758.164450 2771.687081 2852.338921 3131.208160 12090.982244 4931.334201 14594.583086 18876.828756 -1552.615432 -3339.413325 12417.579157 14447.529900 9649.970825 11168.510413 13169.259378 10859.422367 3149.422047 15762.485043 17259.086203 12559.476721 12582.076896 16286.456883 12963.560427 9161.031626 12052.221514 3323.386665 10387.865048 8620.374441 21030.282885 897.662008 10487.821917 3996.546849 11158.674402 5867.180091 11931.770750 4058.031660 4997.509312 5336.136452 4506.172516 12425.950928 -8013.522191 3698.008747 11357.694847 3988.967709 -163.131983 -163.182509 -163.376238 -163.475912 2427.143907 2405.673177 2398.447893 2532.962424 11577.376521 7383.166840 14819.215603 15383.676624 38811.553902 15189.916473 12241.565708 16195.331200 2887.425218 10306.352932 5510.982234 12183.659461 17546.440795 2473.692952 8732.662556 15308.837020 10367.980274 8088.299587 3774.089183 9490.742869 13889.847972 17848.659793 13064.811896 3768.625323 5870.726843 17005.623289 -18276.447966 6337.565976 4710.179548 -2592.849260 2208.170241 3591.151351 36073.289506 5538.748894 4707.474037 -4167.003300 -7729.628048 -16553.600613 3544.978823 5808.052213 -190.594357 -190.508888 -190.505158 -190.478709 2136.100691 2081.698608 1993.005539 1997.293945 12341.061038 860.735921 12165.605145 9855.233310 1807.859009 4842.977244 12124.906590 14237.653183 2649.696279 7077.700902 13905.160112 8319.697303 5984.658596 6077.635142 8977.180961 11413.572879 24496.954366 6027.574302 18706.354856 16191.721409 -4342.196967 -21588.376851 21690.176524 13506.872380 20783.392376 10715.904663 18379.745811 -11038.251723 10995.331954 13381.140686 11049.792376 9023.926080 12986.450021 19170.008176 6040.479974 15418.460416 14710.114202 -1940.041046 -12860.445196 8332.390452 -216.499691 -216.360608 -216.275767 -216.196665 1947.972888 1879.730258 1728.679319 1474.821618 8179.008957 11584.280285 8535.662431 13739.045124 10185.801523 1689.011133 -2776.807565 9663.831136 14259.633107 -457.162369 7845.121108 7160.468110 6343.834917 27025.413980 10730.787400 3348.808183 4929.933826 6359.797179 10565.008366 14278.065345 9130.112196 13338.597260 16568.807934 16079.021367 -3152.911340 9840.416060 1528.018691 4469.503256 9020.197614 615.196845 14337.166407 3069.253153 6842.654849 783.163106 -1026.018000 -9331.039954 -23860.601716 3005.111089 11764.670782 -14220.299567 -240.956387 -240.797423 -240.680488 -240.580653 1892.024417 1853.791785 1843.223116 1927.676518 11840.654658 9076.734187 5138.907708 10806.389587 9298.913345 2495.419382 5476.308643 3210.228536 10519.510508 8809.041732 4453.056610 3734.195793 5384.350626 10866.447931 3794.754893 3107.703369 12195.572995 14488.778827 431.355169 5721.250578 13837.954343 13878.428851 4888.530447 7426.683172 6000.660565 16162.746251 -1325.308274 5404.946849 -3025.494838 14085.226809 2197.383685 2840.078765 6686.959314 20200.696091 17469.129194 13079.158433 10014.547105 4986.422560 26462.816056 32153.979326 -264.029021 -263.864362 -263.736076 -263.629231 1951.395095 1919.497548 1958.812527 2288.425644 10050.667128 2392.584101 3285.926551 4003.348213 7086.742448 2733.871135 24107.244715 10491.247293 5611.600158 1281.401739 10051.795504 1449.350836 5635.057340 5009.636439 5833.192805 6786.287325 10745.422491 22211.155362 9522.919118 12224.881552 5255.832224 10405.454299 2368.354234 13340.493066 12327.515382 4774.264534 7220.017390 4450.111455 23827.386563 16984.418530 12700.265203 21125.771616 11645.572227 18579.347467 23207.081903 30647.498832 11133.055264 -4081.621335 18175.363611 -10792.725891 -285.765986 -285.601767 -285.471004 -285.363084 2117.115223 2049.680768 1891.070677 1652.060114 1149.606013 10194.984493 22699.382195 1592.759000 3692.691926 1823.435755 1653.114559 1327.647191 3815.137452 4591.433362 1463.153454 3197.657147 7943.384371 1519.373447 10059.040627 12270.930709 4992.977868 2111.458933 3035.083611 8673.362389 5810.587187 11820.961576 4434.633701 2643.820104 10409.904008 3279.661017 10416.153206 231.508055 5437.711206 6763.984436 9101.392342 308.175574 1078.454822 4829.771146 159.132409 25592.622690 22811.090558 -11702.003348 2532.408805 -3709.559536 -306.210602 -306.049593 -305.920239 -305.813875 2395.244199 2331.995513 2212.159240 2146.377508 3801.473398 4066.574790 1292.502962 6898.979537 12404.464658 19233.677240 18927.668500 909.822967 3512.956289 3925.108705 6397.093554 5003.943062 11115.493201 22667.990970 30524.719940 106.399989 2229.970554 1856.605022 26510.283922 1585.586055 3065.890242 8382.723371 9155.086743 5729.254804 24385.265906 6977.653581 8609.429881 -4591.530789 26969.540596 5097.612711 7837.099633 6136.899811 3576.030480 4940.331024 5851.849166 8116.928267 30309.792636 23716.918324 33657.435857 24923.780448 -325.405561 -325.249108 -325.122942 -325.019361 2750.146299 2706.069583 2655.182375 2723.419127 4452.803283 23973.855603 23253.418010 13624.311489 5080.514448 -466.284925 1127.916495 -1740.263677 7173.779965 1453.244714 3417.195240 4240.976055 14514.349150 25205.785844 23272.903596 1184.117494 16824.991081 -987.294364 2732.443280 14593.594807 17033.096649 12488.447064 1861.982336 -1542.791353 27128.311560 7300.661340 6276.973560 13637.565597 9808.055293 4994.904376 6010.506077 9857.322848 1250.835315 -282.704941 2944.586031 19041.475091 17420.625286 37993.655330 12443.152870 23718.842621 -343.394632 -343.243469 -343.121372 -343.021202 3121.747080 3087.280962 3047.448894 3045.322408 287.837073 962.117650 1075.113652 7432.356317 26941.774358 5861.898252 199.085757 24978.325045 13320.695061 992.125650 19481.950693 2991.913889 1590.393127 22807.085618 13302.923891 1377.163259 23254.629962 22587.571948 11084.526757 4393.110354 3227.246912 1059.826621 15764.096613 25040.860769 1144.002130 3788.015731 9290.363123 19689.123667 5000.721610 12197.187001 4654.162839 26938.127861 22136.693725 13987.922118 1323.772098 7241.064736 34248.820752 6718.719873 18824.742710 6814.551205 -360.223250 -360.077837 -359.960306 -359.863911 3458.048821 3431.788595 3437.314734 3573.666197 1189.067282 -357.079502 -2567.070968 136.684260 10808.453606 2277.594008 17400.733760 1924.629370 2647.813492 14411.656800 12117.874121 4914.812045 9468.589343 9966.906561 1702.234926 1419.905875 22759.407135 1643.969202 2949.907494 804.505511 19920.938155 4677.512445 -3684.605125 2000.625476 15666.165443 15736.586555 -4396.583645 7140.399918 1716.623294 -584.349839 19025.274007 2429.329735 24841.007141 13685.785423 3176.143981 19251.499280 10465.914570 1730.258836 11121.812394 29616.424028 -375.938652 -375.799325 -375.686681 -375.594309 3724.600111 3691.998198 3683.678768 3794.071814 10177.806522 18840.119966 4099.908250 12525.672586 2029.232575 8277.994122 1661.947643 1432.247902 13238.650596 10522.301235 20421.044900 3943.565857 2003.833106 -774.226593 2338.647311 2998.733645 2391.763891 2779.017436 5020.040357 1536.704201 1771.361314 13384.225911 2833.058111 209.001287 20748.715235 -11303.661673 2506.629941 17984.399079 24137.832326 4127.272236 28741.005966 14474.294866 4480.219315 25352.645737 21712.987545 9338.577599 26288.590351 4122.955997 6533.755548 12081.436007 -390.589853 -390.456884 -390.349369 -390.261212 3918.753495 3870.487114 3809.429849 3646.185564 17216.276007 -757.277990 -10082.901805 17651.796313 2996.413064 1917.285627 4765.622313 1008.790226 8802.981673 7288.190186 3727.129391 1203.158053 9131.161622 1547.848267 2360.545848 2892.053128 11009.473989 -6465.416069 4083.315079 723.737425 1587.761995 1216.110839 111.012888 3963.307630 9309.411969 22887.071527 11126.941000 9940.410604 12055.177946 17099.222118 19200.854917 3639.394164 16739.322666 28992.847349 17757.534921 18550.044484 20388.332412 23548.714797 15010.861434 6719.888183 -404.227570 -404.101198 -403.999015 -403.915238 4060.351567 3998.769775 3925.137474 3812.612698 2088.882544 2533.145615 18270.109783 3480.633894 3445.924362 13002.844415 2438.115759 -14428.853737 7701.466021 10739.334530 -6707.284919 -3549.135646 2132.326371 6072.321985 1360.917682 -493.469581 18516.323603 3671.993634 -3867.543788 2085.576257 11278.762936 2977.069018 17435.229375 6416.621679 12246.141861 107.718257 19357.420499 14289.384145 13788.903255 16071.840626 14755.322946 7831.089081 1660.304021 -11251.548596 -558.241248 23649.581044 26525.897977 28390.628635 16212.711754 16574.623565 -416.904153 -416.784601 -416.687935 -416.608687 4170.361812 4100.362669 3915.557980 3612.406645 -1646.298869 23234.391778 1853.321853 -1666.050509 6773.273839 6558.493476 1953.487846 8593.866826 1242.347595 -2344.081660 2572.312989 25374.021554 9482.712652 1487.371552 3030.237432 11025.880252 1413.344495 -2556.592973 10231.186128 817.324092 -10184.962572 1226.182003 3544.639498 5176.458163 11086.393195 1603.254483 1197.102109 5338.630708 16399.275389 11799.531951 1944.381625 1558.556829 4246.551142 17735.014873 4568.449336 11487.727991 27299.330722 17111.575073 8431.283218 27741.960610 -428.673545 -428.561027 -428.470053 -428.395479 4255.302453 4224.690230 4189.746046 4101.652943 -6886.837799 10265.165089 -5854.716337 6973.897520 1006.630154 12563.274568 3804.461567 4105.119526 5377.630663 10372.434815 12179.544424 16762.104598 7740.136299 9763.683233 -345.895891 504.263388 -2208.268387 13300.615840 7755.115924 1426.627914 19734.144242 571.331234 1915.079782 -10789.683823 -1004.907222 -217.459571 5057.647969 15307.781742 16627.618023 20310.231721 -4284.056702 4922.666728 19258.822334 -3549.135646 5562.496987 19797.292749 12220.656762 15500.881063 27679.527034 22398.528148 -439.591268 -439.485999 -439.400892 -439.331134 4286.416450 4264.393823 4289.558278 4474.289656 -449.714452 -449.616648 -449.537586 -449.472791 4267.075893 4198.159783 4032.319758 3767.650352 -459.101885 -459.011775 -458.938941 -458.879261 4250.229492 4157.981026 3887.863767 3400.977805 -467.814101 -467.731923 -467.665511 -467.611104 4272.083900 4207.159167 4073.790209 3838.917227 -475.913481 -475.839488 -475.779703 -475.730738 4327.663865 4284.368608 4145.265715 3906.901481 -483.464372 -483.398832 -483.345892 -483.302548 4413.138006 4419.033292 4412.395093 4340.046356 -490.533212 -490.476410 -490.430545 -490.393010 4508.813976 4574.753769 4685.836260 4710.790603 -497.188659 -497.140894 -497.102346 -497.070820 4588.763456 4714.376626 5057.459420 5661.134805 -503.501707 -503.463294 -503.432318 -503.407010 4641.842456 4761.407341 4952.200443 5135.932833 -509.545797 -509.517063 -509.493923 -509.475049 4706.107009 4855.018647 5104.311958 5297.489489 -515.396904 -515.378185 -515.363152 -515.350934 4797.125631 5010.585091 5410.674957 5841.009363 -521.133599 -521.125236 -521.118586 -521.113252 4903.856014 5199.080642 5803.429152 6596.237432 -526.837087 -526.839424 -526.841436 -526.843212 5015.774683 5381.049030 6174.464750 7514.762022 -532.591211 -532.604591 -532.615541 -532.624654 5151.666005 5568.558087 6382.188222 7553.466847 -538.482429 -538.507189 -538.527348 -538.544021 5338.461050 5850.276386 6856.093753 8026.017684 -544.599755 -544.636222 -544.665855 -544.690305 5538.722558 6171.972126 7544.342109 9295.763141 -551.034676 -551.083163 -551.122526 -551.154960 5658.178727 6353.473451 7831.432231 9796.983550 -557.881038 -557.941846 -557.991178 -558.031796 5614.788178 6310.902994 7861.677508 10134.815244 -565.234920 -565.308330 -565.367860 -565.416846 5374.282458 5949.179308 7305.466319 9817.816971 -573.194487 -573.280762 -573.350701 -573.408232 5013.097951 5354.816600 5922.535944 6431.987393 -581.859839 -581.959223 -582.039771 -582.106008 4700.898161 4878.762053 5232.711338 5507.698215 -591.332864 -591.445585 -591.536925 -591.612018 4548.420104 4587.508062 4590.279698 4901.562355 -601.717097 -601.843365 -601.945667 -602.029758 4577.301006 4539.567903 4221.962746 3400.878676 -613.117589 -613.257602 -613.371028 -613.464247 4694.248074 4614.503125 4346.848786 4012.552194 -625.640810 -625.794757 -625.919459 -626.021932 4774.822600 4559.907560 3672.705032 2110.407072 -639.394563 -639.562624 -639.698748 -639.810596 4815.856180 4592.025588 3763.909581 2155.924841 -654.487921 -654.670273 -654.817963 -654.939304 4840.684080 4704.518217 4263.564183 3768.351579 -671.031186 -671.228004 -671.387401 -671.518351 4859.051665 4779.507231 4471.754048 4060.478087 -689.135849 -689.347304 -689.518546 -689.659218 4883.593997 4815.583068 4144.436055 2071.326254 -708.914533 -709.140790 -709.324012 -709.474514 4933.853826 4966.465902 4984.801492 4962.032489 -730.480906 -730.722118 -730.917439 -731.077870 5026.635976 4968.837561 4627.531810 4073.891097 -753.949514 -754.205806 -754.413327 -754.583768 5322.611838 5276.747005 4874.381455 3548.273072 -779.435501 -779.706956 -779.926741 -780.107241 5871.693527 6035.405985 6415.624732 7063.627303 -807.054169 -807.340800 -807.572855 -807.763417 6548.503669 6879.468503 7667.687097 8989.027838 -836.920313 -837.222031 -837.466278 -837.666833 7240.443338 7615.742305 8531.574060 9798.989503 -869.147272 -869.463844 -869.720087 -869.930469 7925.872424 8176.368660 8712.995217 9573.763698 -903.845633 -904.176631 -904.444515 -904.664426 8698.241011 8817.098429 9010.228304 9339.180339 -941.121514 -941.466254 -941.745217 -941.974186 9634.623975 9683.996226 9764.763297 10006.953979 -981.074364 -981.431841 -981.721058 -981.958401 10734.437557 10752.944362 10834.348988 11268.231977 -1023.794232 -1024.163046 -1024.461371 -1024.706137 11934.481380 11934.467789 11954.500148 12142.837159 -1069.358452 -1069.736729 -1070.042631 -1070.293552 13130.776026 13143.121219 13318.997135 13822.047373 -1117.827732 -1118.213042 -1118.524539 -1118.779977 14185.637971 14141.447127 14329.862471 15448.707611 -1169.241633 -1169.630913 -1169.945512 -1170.203408 15045.790642 14778.365603 14331.909862 14413.795128 -1223.613499 -1224.002978 -1224.317608 -1224.575434 15862.536653 15354.210687 14205.468332 12835.998075 -1280.924873 -1281.310007 -1281.620970 -1281.875681 16866.788856 16306.512276 15027.369253 12918.661074 -1341.119546 -1341.494964 -1341.797877 -1342.045877 18126.542543 17725.652252 17010.641649 16025.925642 -1404.097371 -1404.456823 -1404.746564 -1404.983661 19485.987414 19221.926924 19005.512128 19464.372237 -1469.708073 -1470.044371 -1470.314983 -1470.536328 20778.842008 20439.595835 19523.349084 18180.586867 -1537.745328 -1538.050225 -1538.294712 -1538.494674 22019.290803 21823.494743 21201.334552 19927.621040 -1607.941499 -1608.205395 -1608.415227 -1608.587070 23084.895064 23214.974705 23986.791782 25284.813672 -1679.963613 -1680.174788 -1680.338682 -1680.473770 23672.527201 23792.077853 23977.103803 23457.691178 -1753.411580 -1753.554261 -1753.655201 -1753.741053 23736.279646 23873.131867 24500.465892 26025.985356 -1827.820595 -1827.870195 -1827.878263 -1827.893864 23370.292354 23410.198339 23769.902831 25226.770426 -1902.671997 -1902.583456 -1902.438709 -1902.343479 22779.643703 22674.464147 22316.772771 21632.692634 -1977.422483 -1977.101496 -1976.673331 -1976.381785 22197.587144 22237.711288 22069.359085 21216.822387 -2051.576215 -2050.805830 -2049.796965 -2049.123404 21615.409505 22106.065283 23286.908564 25059.886424 -2124.865551 -2123.104442 -2120.826592 -2119.378145 20793.550903 21619.867832 23560.168911 26250.035616 -2197.742886 -2193.496110 -2188.356696 -2185.401847 19614.597740 20517.652034 22696.652184 25857.509927 -2272.466623 -2261.232856 -2249.928004 -2244.550294 18248.457013 19085.456955 20935.847721 23518.574749 -2349.781046 -2320.015518 -2299.198570 -2293.794258 16988.928299 17895.548710 20145.969925 24310.965063 -2359.043054 -2342.512356 -2333.413981 -2332.861152 15947.258985 16955.802221 19477.470445 23862.410761 -2313.176809 -2340.988350 -2362.397187 -2366.605121 15053.736459 16115.470501 18908.814020 23984.139414 -2362.721532 -2381.740860 -2394.922823 -2398.337108 14199.236671 15088.193459 17735.457642 24126.688475 -2419.048776 -2421.975021 -2425.813764 -2427.595595 13447.713787 13869.388416 15032.552025 18306.625787 -2450.001095 -2450.384916 -2451.474283 -2451.927308 13050.884014 13036.154557 12870.075843 12693.520938 -2470.056863 -2469.443714 -2469.308998 -2469.042232 13188.679961 13023.263763 12387.995771 10685.464283 -2479.713096 -2478.663848 -2477.973145 -2477.346751 13766.922572 13796.916055 13730.215309 13072.841693 -2478.813673 -2477.546619 -2476.590011 -2475.781383 14421.193954 14783.667011 15916.456595 17727.436485 -2466.997190 -2465.608843 -2464.515972 -2463.609746 14755.780545 15208.671768 16774.363959 20679.452776 -2443.891083 -2442.431000 -2441.264766 -2440.303993 14659.512751 14863.736924 15403.491354 16640.433768 -2409.186371 -2407.686143 -2406.482877 -2405.493526 14330.875505 14290.576457 13995.294128 13091.289253 -2362.667511 -2361.153432 -2359.941496 -2358.944362 13994.781452 13943.694793 13687.000566 12985.777570 -2304.220806 -2302.721856 -2301.533745 -2300.552356 13691.015900 13774.260159 14054.659382 14362.428891 -2233.828048 -2232.386185 -2231.274094 -2230.344924 13326.293543 13481.100687 13806.017161 14380.152993 -2151.542186 -2150.233836 -2149.301448 -2148.494591 12850.666617 13051.781853 13464.326987 13930.947923 -2057.429230 -2056.416840 -2055.893147 -2055.359108 12262.411716 12490.021990 12972.723760 13602.333043 -1951.433148 -1951.095477 -1951.509847 -1951.584205 11590.600081 11822.429348 12393.532389 13428.516638 -1833.046793 -1834.331213 -1836.926318 -1838.345928 10883.342262 11050.219435 11373.021812 11922.827547 -1700.438284 -1705.940977 -1713.607521 -1717.867206 10224.385044 10335.428780 10511.990693 10769.521329 -1547.796214 -1565.759885 -1584.778172 -1594.313635 9674.839312 9766.732738 9871.192013 9854.681292 -1354.839750 -1418.973101 -1457.551355 -1474.703690 9249.410439 9369.021806 9678.818743 10283.410053 11004.352268 11247.167034 9841.905498 9316.481796 8885.388090 6351.873651 5922.194724 5967.948349 5149.713220 5122.639846 3584.637730 2235.151371 1817.333342 833.666010 691.114290 1140.184854 1113.275855 1493.866632 2367.062066 2930.588843 3337.026218 3654.233225 3890.403555 4049.502793 4135.794258 4155.005688 4114.256024 4021.567400 3885.295372 3713.623196 3514.177468 3293.776736 3058.300994 2812.659166 2560.828594 2305.941955 2050.400775 1795.999273 1544.046750 1295.480631 1050.965190 810.972743 575.844163 345.822671 121.045744 -98.544728 -313.483040 -525.580993 -740.453484 -977.181097 -1176.053028 -1285.353712 -1343.962993 -1368.455843 8926.076580 9033.287921 9283.205347 9814.331705 10418.439724 10402.164015 9343.703287 8398.706868 7712.306741 6523.452993 5865.197359 5328.784316 4721.617465 4345.047966 3606.312820 2693.816667 2082.017824 1668.627543 1511.422698 1567.319687 1753.227392 2086.194241 2524.679628 2961.561565 3339.136488 3645.198454 3877.093606 4034.993512 4121.622757 4141.978819 4102.782167 4011.811405 3877.263697 3707.219111 3509.241130 3290.115515 3055.712161 2810.946083 2559.811393 2305.463723 2050.330276 1796.231186 1544.500357 1296.097828 1051.708855 811.827024 576.819790 346.974379 122.519231 -96.390142 -309.738782 -517.752058 -720.552515 -912.753539 -1075.311702 -1188.680233 -1255.826619 -1284.587038 8707.472273 8782.044266 8914.966980 9073.020086 9145.046493 9000.462415 8498.768545 7842.397955 7125.614733 6373.893347 5691.527904 5094.672925 4536.678461 3964.503210 3354.208858 2761.596587 2271.867915 1941.224240 1794.379265 1819.256174 1986.021969 2269.253712 2627.546001 3002.885524 3349.336107 3641.430891 3867.410272 4023.214006 4109.626699 4130.720732 4092.739538 4003.191663 3870.109399 3701.469169 3504.771373 3286.767757 3053.315439 2809.331774 2558.823329 2304.964255 2050.203227 1796.382565 1544.857705 1296.609116 1052.342145 812.573005 577.701618 348.074871 124.048959 -93.928664 -305.164140 -508.336732 -700.474060 -875.029970 -1021.364414 -1130.184234 -1198.626817 -1228.866551 8612.701196 8671.454663 8751.629755 8818.021754 8790.303674 8581.847579 8165.467484 7593.882222 6936.258680 6254.064221 5603.994307 5004.294523 4436.359067 3873.634141 3311.627972 2785.406508 2350.639665 2053.078340 1914.929323 1932.856744 2086.414262 2346.336746 2673.471693 3022.091620 3351.852872 3635.328273 3857.412486 4011.849113 4098.250211 4120.072816 4083.215834 3994.976506 3863.248468 3695.915574 3500.418844 3283.476015 3050.929618 2807.696755 2557.793644 2304.410281 2050.014412 1796.468477 1545.147639 1297.051043 1052.901947 813.235500 578.476330 349.013000 125.285704 -92.077424 -302.003666 -502.479719 -689.746074 -857.587663 -998.031793 -1104.114221 -1172.156168 -1202.602748
</DataArray>
<DataArray type="Float64" Name="Velocity" NumberOfComponents="3" format="ascii">