<VTKFile type="PolyData">
<PolyData>
<Piece NumberOfPoints="2064" NumberOfVerts="2064" NumberOfLines="0" NumberOfStrips="0" NumberOfPolys="0">
<PointData>
<DataArray type="Float64" Name="Pressure" format="ascii">
 7904.822576 7895.100282 7876.534518 7850.476652 7819.982823 7788.398667 7758.535128 7733.547084 7718.559793 7718.420312 7732.621217 7754.927493 7777.835558 7796.215702 7807.728659 7811.747144 7808.408893 7798.114489 7781.308719 7758.396882 7729.719920 7695.553987 7656.119482 7611.593059 7562.119765 7507.824046 7448.819126 7385.214573 7317.122106 7244.659754 7167.954580 7087.144188 7002.377248 6913.813254 6821.621737 6725.981093 6627.077183 6525.101831 6420.251308 6312.724866 6202.723396 6090.448248 5976.100304 5859.879459 5741.984889 5622.616990 5501.983097 5380.311956 5257.888517 5135.135067 5012.793066 4892.298740 4776.416040 4669.840448 4578.781235 4508.924088 4463.574506 4442.952934 7902.777131 7892.693468 7872.583491 7843.702282 7809.784070 7775.130192 7742.163089 7712.022265 7691.789625 7692.146573 7712.816446 7742.718334 7770.891352 7792.078804 7804.956408 7809.650758 7806.673122 7796.591094 7779.922726 7757.106277 7728.498593 7694.384468 7654.989717 7610.494837 7561.047807 7506.775378 7447.792567 7384.210305 7316.141289 7243.704203 7167.026490 7086.245915 7001.511133 6912.981501 6820.826324 6725.223716 6626.359229 6524.424368 6419.615085 6312.130318 6202.170632 6089.936996 5975.629745 5859.447785 5741.588226 5622.246793 5501.619957 5379.911029 5257.345793 5134.212096 5010.962876 4888.497237 4768.939806 4657.144682 4561.272254 4488.888420 4442.881735 4422.272213 7901.992333 7891.289028 7868.414626 7832.798065 7789.647795 7747.607496 7711.363670 7668.752428 7630.152681 7631.090879 7671.614267 7721.829678 7761.132233 7787.038811 7801.952971 7807.574513 7805.050632 7795.212824 7778.690254 7755.969147 7727.428110 7693.362719 7654.004862 7609.538957 7560.115798 7505.864272 7446.901043 7383.338285 7315.289603 7242.874292 7166.220168 7085.465165 7000.757958 6912.257806 6820.133833 6724.563921 6625.733360 6523.833379 6419.059650 6311.610822 6201.687138 6089.489144 5975.216483 5859.066693 5741.233874 5621.906803 5501.265608 5379.474879 5256.668468 5132.916054 5008.155817 4882.105045 4754.490195 4629.034806 4519.877681 4442.745089 4396.779057 4376.869763 7902.454833 7892.635759 7868.587421 7823.149851 7761.589406 7699.463188 7659.310961 7598.797341 7526.506809 7545.932698 7624.321979 7705.106421 7753.693696 7783.053784 7799.448204 7805.753169 7803.577579 7793.938175 7777.541169 7754.906219 7726.427494 7692.408662 7653.086471 7608.648681 7559.248607 7505.017112 7446.072419 7382.527900 7314.498046 7242.102769 7165.470267 7084.738672 7000.056705 6911.583554 6819.488194 6723.948305 6625.148943 6523.281086 6418.540152 6311.124531 6201.234190 6089.069336 5974.829098 5858.710058 5740.904267 5621.595827 5500.953871 5379.116748 5256.154754 5131.979696 5006.116854 4877.087020 4740.497110 4581.605672 4442.568949 4365.528495 4324.416213 4307.085566 7902.129558 7897.156869 7883.915865 7844.323471 7758.402820 7635.158858 8044.318708 7257.835427 6979.184897 7525.869703 11251.155606 7500.203982 7075.219537 10305.839671 9627.788409 6897.958597 7728.492247 10325.578660 7573.897156 10801.077160 7507.794594 7556.688197 7706.126485 9640.092840 9516.447495 7074.106633 10483.475452 7709.107023 10219.123776 10145.764552 7568.454584 12009.294761 10871.154664 7080.878350 7563.546454 7435.350689 10835.691262 7000.406959 6904.057883 10994.065252 9338.137816 7344.902504 13997.731877 7362.253236 4303.663071 4256.628340 4228.852243 4216.370697 7894.821851 7897.193509 7909.516880 7904.932625 8116.486735 9446.463812 10743.349778 10414.164281 11060.276828 9767.852071 11104.955972 7492.896779 7636.419059 11454.944565 6994.736535 7464.959811 9272.965481 7402.993160 11182.334418 10677.840973 7419.711827 7747.347620 7568.929982 7366.031916 10422.318440 7932.195161 8407.284810 7676.548484 10507.537464 9674.388432 11058.836152 9097.735134 9548.519277 7072.575538 7643.067477 7792.076776 9089.655294 7430.761680 7326.326123 8990.330876 7151.909787 9332.155013 9863.799344 7110.497406 4145.629697 4131.918842 4117.774019 4110.521464 7873.446593 7875.576208 7887.229117 7889.329036 7510.117570 10489.372068 8346.757908 9874.065820 9008.283443 11165.207378 7101.388875 11459.555590 10481.864487 10196.821214 10864.553495 12497.814371 10850.266467 7712.426462 10953.433116 8733.315615 10104.778379 10257.942746 9776.714698 12626.380035 8599.786087 6989.428390 9426.603518 7740.855599 10810.874702 9652.214200 10364.221297 10611.111983 7750.304438 7477.611470 9110.691080 7287.345156 10931.643818 7677.973215 7535.961071 7715.082133 7769.250215 9566.930280 7636.125243 7249.265396 4010.270447 4005.488476 3999.358566 3995.782160 7839.636776 7832.535723 7813.091804 7783.627853 8974.927604 10627.794474 10704.967943 9777.837480 8642.360378 10730.305645 9496.383838 11295.264197 10219.487314 7335.349470 9864.423225 7631.810292 11135.952199 20192.337136 9510.549807 7294.449467 7658.950298 10701.396644 10836.359482 7526.036840 10166.770033 11215.048287 7513.198957 10351.077865 7830.550846 11037.642548 10551.661088 6876.212744 8008.057242 7681.445177 7036.185216 8786.418213 7615.468470 14188.157940 7644.699136 7663.916151 7950.751716 10649.783075 7659.492975 7805.458831 3882.775968 3880.969849 3878.410753 3876.816646 7804.895995 7793.427750 7764.888890 7719.336088 9741.533059 13571.398145 8322.774840 8262.446656 9700.602361 7052.324977 7105.408560 10359.791147 8265.991045 11177.891207 11421.074749 8075.715594 11058.288006 9847.841281 10481.400439 7769.380996 7079.923323 6798.845224 10926.089608 10739.839723 7565.908190 10783.713293 10407.893352 7704.904925 7565.243222 10828.396167 7079.495726 9221.745848 8090.829693 8639.028100 9749.542027 17272.280171 8087.722142 6995.146797 8059.399674 10386.341579 10830.826655 12237.858727 16845.923270 7504.420142 3758.707755 3758.023058 3756.984789 3756.321768 7778.731975 7767.774843 7739.107407 7682.785447 8729.215438 6962.334084 9809.500161 9998.565630 10081.167816 8896.883851 10693.593037 8711.729864 7670.029606 8323.352614 9047.631209 9879.771575 10598.647227 11018.256111 5307.577767 11487.347096 8370.938442 7460.507552 11009.711596 7433.617141 11270.624162 7426.115317 7729.818999 7430.127354 11420.168490 10812.237190 19031.663973 10548.896210 10197.519504 7873.360932 7389.276202 7669.511827 10672.701585 7533.233910 7438.603915 10006.214279 10686.675358 8762.790178 10420.936753 8837.589080 3636.527624 3636.295540 3635.900794 3635.651360 7764.459015 7759.757927 7752.527313 7713.490500 11048.190567 10351.359882 9831.858187 9694.273577 10493.030426 10512.979186 9371.977834 9676.593187 8519.232484 12380.165458 9730.145644 9471.119717 7485.823761 9762.268316 9531.806684 12146.373878 10798.977950 7943.972906 8264.620512 9302.179706 10016.339966 11865.427010 7081.057696 7719.816850 8269.159190 7668.991390 11165.871402 7575.599761 10329.033506 9755.721902 7796.974488 7572.579623 10663.874705 20264.655026 11130.466593 10314.692953 7392.116607 8407.009901 7635.548213 7159.759792 3515.685536 3515.644703 3515.524297 3515.455786 7759.267258 7757.552269 7758.765853 7732.050287 8609.326132 8775.029122 9428.585789 9970.368588 10178.807913 10614.256120 10915.472282 9764.826444 8057.452979 10245.158929 10844.765480 8363.069124 8477.425420 8707.856752 10102.719527 9818.371953 9050.370393 9763.041506 9930.840879 9493.883344 9206.535500 12403.140193 11752.246895 11689.990210 10904.804630 7604.746032 9923.508701 7757.218944 7956.701398 7042.498729 9637.749712 7423.772258 10620.004659 7535.284014 7121.648797 17061.346634 10301.259453 9556.741149 7922.480986 9853.317977 3396.003421 3396.047541 3396.046550 3396.058262 7761.576982 7757.953094 7735.597104 7677.785185 8768.488017 9549.642301 10092.286245 9762.613500 10669.344958 10887.097867 10732.296497 10691.546677 9852.764181 7734.788000 6328.958010 9572.135135 8770.083081 9583.833422 9626.098387 8584.169802 9835.804523 9416.649787 11328.725157 9870.015773 9645.585698 9800.134867 9345.521539 10105.964169 8733.807514 7658.751799 7851.981281 9441.866198 10642.366922 10938.251132 6992.863994 8216.220947 13537.231921 11433.853819 7383.432137 7422.578275 9835.518511 10734.342461 11347.879879 7062.231280 3277.449026 3277.533905 3277.587212 3277.636184 7771.121206 7778.013201 7783.959641 7759.622256 12879.023367 9771.653765 9676.222037 8441.432043 10440.195035 11700.599885 10128.270671 9704.977801 9657.262235 8813.511584 9992.539413 9367.772251 9089.196819 11521.019522 10289.248903 10661.228129 9713.213129 11492.124188 9420.826734 9453.047078 7611.295801 19429.727602 9270.475163 9685.398884 8848.060249 9114.622646 9194.338481 9993.275334 10854.410611 12252.218823 8838.216064 9798.968131 9467.628773 11301.942785 10331.639367 7339.131900 9097.531926 7051.186479 8892.096472 10240.843086 3160.046991 3160.153916 3160.234001 3160.301920 7777.895975 7800.100055 7856.273422 7883.982914 9960.921779 9934.263118 7571.676395 8743.731172 9765.072887 9352.637120 10678.849746 9450.376511 9775.886302 9139.001835 9499.782984 8935.379591 9682.368335 10076.967087 9111.839961 9905.512221 10727.482384 10449.720279 9155.289758 8596.067033 10093.665549 9723.127442 10656.084662 10313.504194 10927.780054 10861.053838 10588.898424 11168.118201 10438.441923 7551.220847 8194.853777 10922.365448 8440.967257 8712.815414 10047.429509 9774.569590 11102.915640 8843.529404 10515.627460 24465.063388 3043.842774 3043.963610 3044.058694 3044.137658 7770.167511 7790.155422 7824.668597 7828.856355 9554.656651 10695.670279 9047.075979 10116.980553 7608.613170 7507.264106 11080.908575 11581.788041 8461.636714 9981.713695 7668.085872 10053.452506 13228.390528 10432.777225 9892.188481 9916.046239 9102.807837 10834.483585 10428.862302 10807.320100 9525.736510 11365.826909 10566.268931 12981.834065 8558.763702 10093.166069 11521.144997 10699.277037 9541.880308 9581.981612 9741.526167 8911.474440 9042.462270 8337.347364 9720.736340 8729.347866 10815.678461 3047.371919 16851.340502 10869.559436 2928.887869 2929.018903 2929.123805 2929.210297 7750.212158 7769.808931 7790.352109 7778.305891 10355.596415 9951.769089 10976.712933 9185.186720 12035.544712 10448.030181 11727.999099 10270.416990 6650.726205 11216.120506 8867.002768 9657.309026 10294.598162 10183.572597 9881.945775 8742.994503 10591.263310 9158.959615 8638.519220 10710.880810 10641.321687 10300.657256 9111.161002 8645.516511 10915.058427 10149.164718 10135.596155 8553.306266 9581.831328 12178.635346 11134.955416 10139.428297 9124.471557 10092.024334 8725.712196 10939.276307 9130.899611 8859.437668 11201.934425 10928.452382 2815.233786 2815.373165 2815.485475 2815.577824 7718.858026 7755.147050 7818.792139 7827.671923 10516.612408 7002.675444 8968.698711 10148.814402 8119.929804 9611.241942 8464.133024 8879.922565 8983.764972 10387.936729 8138.710803 9685.956857 10640.371002 8844.298308 10700.386409 9650.543800 10653.693286 9497.129725 10297.532239 11951.661031 8558.244760 10149.088419 6857.243774 10054.129565 11347.491335 7747.283782 9348.469091 9883.508418 10395.486233 9331.961259 10009.995538 9767.886743 8761.979624 9392.268972 9458.360364 11712.334305 9436.484930 8782.203604 8416.843786 8490.705103 2702.929661 2703.076325 2703.194805 2703.292122 7662.856378 7708.631546 7801.738781 7832.660348 8996.364191 9089.946531 10037.134479 9643.619355 9266.754270 10410.788266 7500.959117 11425.314325 9021.718240 7483.495586 10761.283603 10745.513913 9759.643554 11164.596776 11424.384697 10031.504858 10958.736063 10547.593989 -5091.419044 11446.342961 10933.912124 9997.555746 11223.877333 7601.052100 8441.940171 7499.926909 11667.699577 13461.165897 9659.912583 11499.646534 11204.764312 10256.325934 10218.936875 9428.329921 9087.535045 9639.086223 9710.919032 10424.746967 9467.037648 9801.352770 2592.021395 2592.174633 2592.298547 2592.400282 7574.766197 7609.082048 7679.022245 7713.905854 10821.677043 11327.678511 10751.895013 9980.027556 8885.498098 7136.219032 11342.290424 10816.253402 9059.365515 8534.228875 9700.648386 7805.975650 10240.354843 10273.676487 9733.984865 9924.659790 10039.842419 8571.435842 10356.208061 8268.011060 6488.754344 8997.529660 8317.056073 10183.452109 10688.949346 11398.617460 9376.628120 10670.571599 9896.701936 11980.055775 10941.786667 7329.170710 7766.317075 10410.879695 9638.963519 10074.579329 9504.426300 12739.814381 9897.002790 9775.225291 2482.551426 2482.710685 2482.839520 2482.945277 7466.079936 7482.645876 7506.864941 7523.260925 10443.290760 9187.209952 9363.180859 9589.686329 7551.902401 10301.078284 9620.857697 7450.018794 7679.550364 7607.405151 7236.039215 8522.203895 12249.719119 11291.946473 11074.124714 9104.087918 7743.701303 7149.133527 10455.708987 9884.579943 8991.126749 8238.438583 11615.732437 9830.489842 7279.079034 8313.456038 10501.818598 7216.698583 7319.913149 9551.201087 7782.357732 9533.524409 11205.912219 10390.751623 22267.242470 11730.237748 10017.905175 8810.444031 11125.657165 10326.355058 2374.558764 2374.723578 2374.856928 2374.966381 7354.874273 7361.949823 7373.106955 7390.735702 8835.612075 10208.447712 10334.398847 10636.717834 7939.003155 6671.675842 17962.956931 9467.104961 9787.888254 9733.589381 10583.889614 43840.679996 9301.311624 8649.637902 7501.963634 12659.874131 10665.360565 7697.980886 10149.322295 19169.275578 9263.277194 10325.077546 7686.882429 10403.161369 10705.608471 9810.676736 7644.441101 9028.155627 7175.889681 9794.605345 7003.007116 9830.025758 10443.292632 8549.688133 7145.764691 12062.699358 10906.760903 9409.784518 7563.389881 12133.323216 2268.079152 2268.249104 2268.386619 2268.499487 7252.438143 7253.767400 7259.268027 7274.827363 17233.313210 10993.767809 8761.334592 10323.511622 50810.421493 9471.065490 9548.552822 6993.470767 10415.034998 10410.026037 10098.379006 7669.429499 7472.588210 10681.181232 2215.174454 13562.296649 18711.646184 11328.440419 11050.712481 10012.248126 10062.568092 142.378094 8492.702742 7457.658542 8084.878228 9826.210500 10424.419371 11326.809182 9880.972987 7612.144984 7917.384335 9222.521419 7500.965429 10017.501816 11813.508674 10379.615754 9354.845811 9236.397562 7600.243413 10334.492504 2163.145260 2163.319970 2163.461340 2163.577369 7165.442649 7159.629498 7145.652231 7144.386000 8588.385558 7542.985316 11046.782096 6263.386513 1555.176715 7777.719685 10743.079797 8503.460177 10230.585357 6905.496726 11838.385510 10437.873800 7184.649526 11734.309309 7990.408892 11655.176876 7640.310634 7672.133520 7750.897468 11285.042962 11129.967268 10867.320389 9615.386048 6751.356616 9935.476857 14832.229228 7724.808260 7526.366974 7393.638675 10744.685480 7658.014543 10035.905134 6806.962745 7798.288974 8298.095897 9940.953369 11522.226887 10450.988121 9400.247520 10199.621082 2059.786909 2059.966029 2060.110972 2060.229930 7100.511775 7089.404349 7063.332498 7053.959015 1958.031298 1958.214513 1958.362770 1958.484449 7062.583678 7051.029116 7019.372748 6995.463201 1857.903239 1858.090260 1858.241600 1858.365807 7050.972747 7050.012496 7041.748853 7006.984803 1759.425387 1759.615955 1759.770167 1759.896731 7055.157798 7069.742282 7113.045638 7112.310626 1662.618470 1662.812354 1662.969251 1663.098019 7063.816529 7072.886172 7091.753192 7093.439354 1567.501517 1567.698515 1567.857932 1567.988769 7083.592506 7086.614120 7075.912895 7060.560372 1474.092084 1474.292018 1474.453815 1474.586604 7121.393669 7138.746648 7174.856497 7208.252122 1382.406471 1382.609193 1382.773248 1382.907892 7166.638605 7197.936792 7274.851994 7364.511594 1292.459942 1292.665330 1292.831544 1292.967961 7206.995292 7242.785666 7324.861268 7425.152250 1204.266931 1204.474888 1204.643184 1204.781311 7238.904874 7277.743995 7371.137970 7480.326835 1117.841252 1118.051707 1118.222027 1118.361816 7263.843202 7292.973203 7349.327665 7437.289004 1033.196292 1033.409199 1033.581505 1033.722926 7293.903078 7314.974377 7341.385760 7406.947494 950.345209 950.560544 950.734818 950.877856 7340.547743 7366.137302 7411.342326 7512.669529 869.301111 869.518875 869.695116 869.839771 7405.295203 7450.451143 7549.479904 7684.121608 790.077237 790.297450 790.475677 790.621963 7480.406852 7539.019534 7669.350976 7828.448740 712.687123 712.909829 713.090075 713.238020 7566.692629 7628.669257 7752.933331 7897.797662 637.144765 637.370025 637.552342 637.701988 7676.603281 7737.678448 7843.485292 7971.318927 563.464771 563.692666 563.877118 564.028518 7823.027862 7898.190607 8034.617582 8184.850271 491.662500 491.893129 492.079796 492.233016 8000.529716 8092.767254 8269.516042 8459.681964 421.754201 421.987679 422.176654 422.331770 8192.560479 8296.913389 8516.460360 8750.149077 353.757134 353.993590 354.184978 354.342076 8384.974063 8483.343066 8687.099045 8905.768511 287.689686 287.929263 288.123180 288.282356 8576.069155 8650.413465 8781.650359 8947.071574 223.571473 223.814329 224.010900 224.172258 8772.602894 8834.317137 8945.486899 9098.994705 161.423442 161.669743 161.869105 162.032755 8968.924586 9021.727381 9133.417123 9305.208918 101.267950 101.517874 101.720171 101.886231 9154.363904 9187.381855 9254.388138 9402.194241 43.128846 43.382579 43.587961 43.756555 9325.550635 9344.653810 9380.806540 9503.992887 -12.968467 -12.710730 -12.502107 -12.330850 9473.386238 9497.403722 9569.918488 9700.913107 -66.996968 -66.735027 -66.523000 -66.348948 9576.041642 9585.021296 9623.512237 9707.210710 -118.927972 -118.661622 -118.446025 -118.269041 9631.429540 9609.717165 9585.731332 9611.101104 -168.731089 -168.460120 -168.240783 -168.060728 9664.043318 9603.779305 9482.539857 9422.605703 -216.374188 -216.098387 -215.875138 -215.691870 9714.229787 9641.393371 9507.450575 9423.032967 -261.823371 -261.542523 -261.315188 -261.128566 9806.183009 9737.531544 9611.181687 9524.914580 -305.042954 -304.756843 -304.525248 -304.335127 9941.818616 9900.272379 9826.742797 9757.158647 -345.995455 -345.703864 -345.467832 -345.274070 10094.350284 10099.947060 10151.503840 10173.988779 -384.641580 -384.344293 -384.103651 -383.906103 10217.281359 10242.927510 10333.121682 10399.220513 -420.940225 -420.637026 -420.391599 -420.190123 10287.349047 10290.118336 10304.437459 10337.106037 -454.848471 -454.539147 -454.288762 -454.083215 10325.777213 10279.292885 10155.380101 10139.441070 -486.321588 -486.005926 -485.750411 -485.540654 10386.468203 10319.579551 10144.529257 10102.846891 -515.313039 -514.990830 -514.730015 -514.515907 10504.331316 10464.062476 10360.549567 10382.161268 -541.774486 -541.445521 -541.179239 -540.960643 10661.167231 10691.382494 10778.491997 10926.394710 -565.655792 -565.319867 -565.047952 -564.824731 10787.318007 10873.210972 11095.830845 11338.480147 -586.905031 -586.561942 -586.284229 -586.056250 10817.169967 10911.371636 11134.410279 11363.968678 -605.468485 -605.118033 -604.834360 -604.601488 10735.072110 10806.043822 10984.663732 11176.838591 -621.290651 -620.932636 -620.642843 -620.404948 10574.739190 10584.380133 10585.751238 10621.043089 -634.314234 -633.948461 -633.652388 -633.409338 10410.427946 10378.230129 10276.144167 10213.803239 -644.480144 -644.106417 -643.803906 -643.555572 10299.714875 10268.859857 10192.916793 10158.830812 -651.727485 -651.345610 -651.036505 -650.782758 10250.137896 10242.202014 10243.122809 10294.700757 -655.993545 -655.603328 -655.287472 -655.028182 10240.742551 10233.596168 10217.225386 10273.713376 -657.213771 -656.815019 -656.492255 -656.227296 10260.236360 10256.814990 10245.350006 10295.788666 -655.321753 -654.914272 -654.584444 -654.313686 10298.101819 10307.391885 10334.491305 10380.915948 -650.249192 -649.832789 -649.495740 -649.219055 10338.664771 10346.588325 10355.336812 10359.520103 -641.925875 -641.500356 -641.155927 -640.873185 10374.030275 10395.763236 10457.623457 10484.597203 -630.279637 -629.844805 -629.492839 -629.203911 10383.918051 10408.254858 10482.957342 10522.904063 -615.236328 -614.791987 -614.432325 -614.137080 10354.290322 10356.342003 10360.433505 10347.296014 -596.719775 -596.265728 -595.898211 -595.596519 10296.446077 10267.019598 10171.812953 10087.715812 -574.651749 -574.187799 -573.812268 -573.503997 10233.386735 10217.173276 10200.908440 10166.277245 -548.951931 -548.477882 -548.094177 -547.779198 10158.403026 10141.061180 10116.992824 10067.950548 -519.537885 -519.053541 -518.661505 -518.339688 10071.025730 10043.293526 9990.851099 9902.813521 -486.325034 -485.830203 -485.429681 -485.100900 9982.675497 9933.477173 9818.914255 9688.273740 -449.226652 -448.721147 -448.311987 -447.976117 9912.570774 9857.519055 9736.719415 9596.091500 -408.153863 -407.637503 -407.219560 -406.876481 9868.050282 9813.239454 9700.575886 9575.126830 -363.015656 -362.488270 -362.061406 -361.711007 9848.245567 9801.936085 9738.501943 9689.787972 -313.718925 -313.180355 -312.744444 -312.386620 9850.375353 9789.482307 9665.425676 9591.932505 -260.168518 -259.618623 -259.173554 -258.808215 9891.640537 9835.605118 9731.890298 9654.882170 -202.267323 -201.705988 -201.251675 -200.878748 9978.873750 9934.296912 9858.661412 9786.571089 -139.916371 -139.343517 -138.879911 -138.499352 10104.649468 10063.930187 9977.233552 9889.166071 -73.014967 -72.430572 -71.957695 -71.569509 10257.915642 10231.761168 10188.645278 10133.862400 -1.460826 -0.864978 -0.382986 0.012726 10421.612356 10403.327699 10373.035157 10326.668714 74.849797 75.456800 75.947456 76.350392 10586.226045 10571.765871 10550.658282 10525.659134 156.022089 156.639484 157.137693 157.547106 10749.501843 10732.000852 10692.960504 10641.315021 242.162939 242.788919 243.292035 243.706149 10918.179197 10899.291598 10846.827088 10755.404348 333.381974 334.012291 334.514055 334.928682 11100.835488 11092.771742 11074.378488 10986.145859 429.794495 430.419135 430.904707 431.309953 11298.007282 11296.320172 11294.468688 11228.935287 531.529053 532.124246 532.558342 532.930775 11513.294573 11513.850565 11510.374369 11449.502227 638.746319 639.255210 639.553737 639.837904 11754.352328 11758.198942 11746.786060 11664.362050 751.685503 751.970661 751.932930 751.998336 12025.022728 12046.699517 12052.496424 11926.937318 870.779297 870.502239 869.649273 869.193691 12311.128759 12359.308024 12419.875160 12286.782767 996.946693 995.241411 992.433687 990.783115 12582.165279 12646.670225 12783.361791 12777.940375 1132.390782 1126.860128 1119.430838 1115.209515 12810.037607 12868.234642 12992.958094 13038.414615 1283.059454 1266.046488 1248.187593 1239.151302 12981.815438 13024.732023 13107.503557 13142.840002 1468.377603 1408.501924 1372.655008 1356.658929 13095.680402 13124.833431 13189.122779 13247.690439 13105.174502 12509.907988 12041.424484 12066.844857 11944.578294 11693.285025 11511.911320 11336.955991 11088.888811 10877.005410 10751.314127 10659.860573 10520.863869 10360.097196 10181.772640 9988.382025 9781.741636 9563.421385 9334.857890 9097.385131 8852.244140 8600.589645 8343.497645 8081.973786 7816.961538 7549.349328 7279.976174 7009.635665 6739.078400 6469.013138 6200.106975 5932.984899 5668.229039 5406.377874 5147.925625 4893.321964 4642.972131 4397.237449 4156.436170 3920.844394 3690.696570 3466.184361 3247.451169 3034.575837 2827.529900 2626.069200 2429.455445 2235.694859 2039.160066 1821.458034 1637.494624 1536.348618 1482.219731 1459.555744 13156.881500 13168.148947 13192.514191 13189.585878 13016.414474 12573.602545 12202.725983 12053.041398 11884.589655 11682.528393 11489.331199 11306.516739 11122.668134 10952.694195 10806.082533 10669.121367 10521.954270 10358.401341 10179.213693 9985.659062 9779.126234 9561.015490 9332.693220 9095.464352 8850.558617 8599.127171 8342.245715 8080.920827 7816.097207 7548.664389 7279.462218 7009.284789 6738.882925 6468.965376 6200.199080 5933.208778 5668.576333 5406.839984 5148.493784 4893.987344 4643.725983 4398.071310 4157.342202 3921.816049 3691.730034 3467.281884 3248.628925 3035.882780 2829.093825 2628.213228 2433.013733 2242.986279 2057.652258 1881.622808 1732.361268 1628.186100 1566.483699 1540.006505 13180.092408 13172.192542 13145.986504 13067.031692 12885.782513 12601.407271 12316.959354 12084.307725 11879.110823 11680.889457 11491.644283 11312.410891 11141.403484 10980.192624 10828.582688 10679.834637 10524.764227 10357.873754 10177.401427 9983.455170 9776.906403 9558.931286 9330.799727 9093.775723 8849.072331 8597.834619 8341.136730 8079.985506 7815.326501 7548.050151 7278.997022 7008.961683 6738.695187 6468.906320 6200.261910 5933.386511 5668.861766 5407.225719 5148.972283 4894.551029 4644.367384 4398.783304 4158.118459 3922.651977 3692.624895 3468.243734 3249.686262 3037.112165 2830.685455 2630.626348 2437.341434 2251.774186 2076.371247 1916.916547 1783.102325 1683.518398 1620.843096 1593.094957 13184.241716 13166.363462 13119.563836 13017.972525 12840.533992 12598.920472 12340.254041 12100.938499 11884.403887 11683.445480 11494.885958 11317.483054 11149.730556 10990.345717 10836.800416 10683.917256 10525.439033 10356.693147 10175.450348 9981.289195 9774.779912 9556.951293 9329.005292 9092.175694 8847.662814 8596.606977 8340.081160 8079.092536 7814.587492 7547.457342 7278.543365 7008.640622 6738.500427 6468.831637 6200.301014 5933.532955 5669.108917 5407.566760 5149.400265 4895.058945 4644.948284 4399.430481 4158.825764 3923.414467 3693.440260 3469.115587 3250.631833 3038.180292 2831.998085 2632.470908 2440.359000 2257.258818 2086.370798 1933.200800 1804.964488 1708.039474 1645.817255 1617.909111
</DataArray>
<DataArray type="Float64" Name="Velocity" NumberOfComponents="3" format="ascii">