<VTKFile type="PolyData">
<PolyData>
<Piece NumberOfPoints="2064" NumberOfVerts="2064" NumberOfLines="0" NumberOfStrips="0" NumberOfPolys="0">
<PointData>
<DataArray type="Float64" Name="Pressure" format="ascii">
 27705.634681 27659.301309 27540.317365 27325.863572 27026.663115 26659.154338 26215.093252 25692.044196 25084.943166 24368.539208 23510.881118 22485.038227 21291.637695 20001.191767 18719.396791 17528.713322 16465.966424 15533.062548 14715.569221 13991.000346 13333.675180 12722.792036 12145.606507 11595.310176 11068.345779 10562.777804 10077.458226 9611.602381 9164.573076 8735.773748 8324.600294 7930.424620 7552.594832 7190.443368 6843.298027 6510.492986 6191.378284 5885.327058 5591.740389 5310.049918 5039.718614 4780.240151 4531.137408 4291.960689 4062.286424 3841.717594 3629.888448 3426.479164 3231.253390 3044.147675 2865.473165 2696.332061 2539.313726 2399.133781 2282.099433 2193.805250 2137.191891 2111.824177 27680.380876 27615.302550 27441.469666 27134.995678 26771.444875 26418.649957 26003.161068 25506.152351 24942.854322 24272.654588 23454.253436 22450.256327 21218.413538 19874.862430 18573.099440 17396.623679 16363.503472 15458.020894 14665.629980 13964.504585 13323.059053 12720.231688 12146.553100 11597.717384 11071.343913 10566.002069 10080.752778 9614.895680 9167.827242 8738.964938 8327.711604 7933.443715 7555.513148 7193.255708 6846.002144 6513.089088 6193.868477 5887.714791 5594.029934 5312.245919 5041.825711 4782.262638 4533.078864 4293.823387 4064.070079 3843.416479 3631.484552 3427.926046 3232.438775 3044.809964 2865.031067 2693.613238 2532.463506 2386.552232 2264.436031 2173.714619 2116.679390 2091.449171 27651.375264 27567.655986 27289.318274 26749.098844 26245.055899 26028.906076 25688.209320 25198.279672 24719.869179 24137.424768 23396.761837 22470.687468 21116.813784 19605.374423 18249.832357 17117.125546 16157.046420 15300.558166 14556.578305 13911.971447 13304.028447 12714.100883 12145.721901 11599.098775 11073.640968 10568.666905 10083.551658 9617.725073 9170.637071 8741.727430 8330.409106 7936.064134 7558.048266 7195.700448 6848.354088 6515.348011 6196.035869 5889.793372 5596.023200 5314.157739 5043.659961 4784.022841 4534.767721 4295.441916 4065.615745 3844.878808 3632.834700 3429.091933 3233.245861 3044.840580 2863.293688 2687.799243 2517.608723 2356.632124 2220.497340 2125.612000 2069.458381 2045.375770 27626.429920 27575.671345 27299.137073 26644.794863 26193.288373 26272.514801 25905.238897 25285.407371 24896.552605 24275.964341 23479.497001 22755.051015 21266.771567 19572.664146 18142.856141 16967.171030 16012.880976 15147.769092 14465.007209 13887.598622 13294.281299 12711.523083 12146.296959 11600.978542 11076.038797 10571.257006 10086.199180 9620.371379 9173.252962 8744.295090 8332.915726 7938.499958 7560.406113 7197.975568 6850.543991 6517.452182 6198.055394 5891.730526 5597.881046 5315.939758 5045.369722 4785.663696 4536.342436 4296.952068 4067.060458 3846.251807 3634.117289 3430.236031 3234.132375 3045.173908 2862.315272 2683.402955 2503.007321 2304.107631 2136.435289 2044.328234 1995.062953 1974.441915 27568.547021 27657.818627 27800.716780 27682.809945 17776.630187 26758.436682 14101.659629 23030.077894 16407.857980 15462.986879 14156.668296 14738.325187 19544.765306 11731.509327 15897.444561 19743.765540 22926.646034 14960.426487 16598.173952 14658.658430 18663.307688 17254.324010 22447.054621 14958.287311 14762.401700 19335.268274 14350.778730 15942.675653 14480.038179 14933.898595 25871.038280 11785.324988 14387.108492 22544.178326 25840.157747 20102.697879 14215.311241 18199.411914 22494.356541 14859.610325 28497.712430 20245.088651 14322.043382 22262.879215 1984.714441 1930.200103 1897.568016 1883.005017 27355.247176 27589.288199 28172.979939 28519.992873 16678.018824 10923.564896 14411.602857 10002.242822 14284.380853 14531.389869 11771.698065 19997.353074 24130.107199 14451.331401 21779.739662 24716.418232 11797.844422 20647.502362 14595.390159 12607.783162 17649.069967 17474.270455 18696.135445 21803.717669 13376.559220 13601.180621 12293.069523 15938.881126 14701.959277 14915.131580 13874.165009 15108.285975 14727.616343 16076.739915 14688.514836 27246.633723 13085.255942 25888.398494 17685.972770 16342.161983 16390.104851 14925.676606 14989.277816 16470.489768 1818.082345 1802.578643 1786.307078 1778.066702 26864.782414 27087.505322 27588.377208 27901.075175 18921.294030 11188.819283 9681.740265 13207.296685 10094.159810 13527.783367 18157.964137 14458.443964 14452.157663 12046.873645 13190.916322 10060.725615 14534.997762 12385.348265 14361.296696 5564.105349 10924.994639 12034.938501 12547.025602 10873.709324 15338.264884 20984.239016 13902.656992 25025.854957 14500.463375 14596.229107 14693.635945 14319.671449 24115.942743 26474.281599 15044.032470 18009.326525 13610.546169 15813.688168 15566.427388 17668.675996 25503.947454 14702.608667 18548.723620 22164.235189 1682.673511 1677.598911 1670.805111 1666.935062 26105.951152 26200.920843 26406.555310 26602.990993 10160.762571 14445.995645 12058.601833 14415.193454 12957.485696 11844.860207 12933.533846 14045.808372 13712.963995 19359.100384 9943.353641 20151.467294 13193.589538 6929.440774 9442.952308 22727.627297 21560.139285 12994.786962 10683.568478 23247.859873 13357.517839 14487.421973 19140.939114 13568.280842 27152.156698 14408.085885 14374.930475 15677.305458 16870.488308 26406.053354 16963.740932 15494.158404 27279.722618 8025.846514 24512.230525 13386.257896 16359.515143 14318.020092 23541.446917 14377.106104 1560.651390 1559.040591 1556.438464 1554.896874 25199.456195 25178.145799 25221.264762 25429.157789 12696.566244 12231.432744 10212.656087 10044.631342 14266.422813 19245.270303 14534.162908 12338.848757 44529.933278 14405.515191 15083.795712 15544.831281 14050.604586 15149.893215 14627.600700 26210.569423 15292.197227 9887.999034 14435.672931 15096.513691 12995.616211 13336.366695 10703.244850 19121.703821 9079.055102 13231.175498 21357.929737 5972.738064 9916.836235 11006.423005 15207.529327 9338.403707 14939.032523 21816.439677 12836.104234 12223.290734 13433.518044 5682.891563 11152.661953 14183.098368 1446.484018 1446.157569 1445.321667 1444.857542 24273.553610 24105.775351 23730.837456 23384.012111 6366.065103 16429.276655 5946.786503 5180.302538 6039.454947 4996.132540 14229.100683 6296.824431 13286.543976 5652.464447 11470.029204 3618.116173 13536.934683 13571.707309 5383.671641 5736.345308 23930.688070 17678.066141 10976.793953 22337.698155 14413.073363 13656.805047 18318.114337 9505.498916 11231.665764 13337.760220 6579.114062 13627.763447 13385.396289 16354.617610 25179.852382 23881.601385 13825.806799 11359.974773 19870.141447 13846.073451 14608.393883 10022.167352 11814.759359 16842.473912 1338.060596 1338.232316 1338.127196 1338.128276 23451.800238 23221.857482 22705.646143 22032.875903 4967.067521 14607.718415 2613.780784 3651.025209 11076.411991 7832.075317 5925.497119 5378.488380 5517.790322 4808.406223 6344.826166 7140.580480 5661.244928 9271.436285 5529.847847 5797.616252 6541.759260 8515.841527 6519.256523 5100.825683 9249.377014 18390.796279 24581.281641 14460.597757 13236.407740 17175.631667 13340.943685 15942.588757 10086.124068 12186.919486 23066.125748 20624.036886 14386.603909 13549.638515 14076.709010 12425.988531 23142.098870 19429.498092 17636.163616 11035.650405 1234.450858 1234.814311 1235.005441 1235.197695 22778.654316 22559.339201 22092.773117 21569.215244 2457.345959 5523.299137 2311.657345 6071.379046 2037.748392 2627.235897 16718.414511 3410.871959 6284.802300 14585.442696 6874.122210 5850.779190 5490.992019 8366.454351 6048.076880 2527.737992 5987.529793 7645.416228 2600.426156 5697.062238 12247.993736 5738.507736 5978.649889 8825.802565 13990.826926 22132.838488 5118.757360 23400.971974 9540.284278 20837.807031 12282.185721 16571.216715 13393.568196 10571.386978 22083.741350 15936.994746 12253.937528 13918.113356 17158.573314 10099.110661 1135.177303 1135.608733 1135.914596 1136.180132 22229.923620 22073.105441 21774.436827 21393.011963 2715.018061 5887.017250 6077.330718 1819.139075 1936.752142 9708.724545 5252.245846 2685.012105 2488.319824 5626.963033 3171.231818 5315.863824 6426.342245 5112.878454 5892.282500 8001.720870 6334.403804 6211.746090 14730.681302 9987.138524 5985.549710 5647.702152 8981.024822 3081.253824 5953.932994 15797.932186 19219.952265 6100.996317 14304.483632 13296.924368 20773.747890 7362.267269 -2349.727074 14197.531808 23805.393900 15661.293384 11862.349600 12266.965194 12776.784464 21192.094732 1039.947353 1040.396109 1040.741094 1041.030170 21740.343857 21633.126021 21462.004428 21208.575799 1805.518614 2526.759346 6391.904610 5891.773972 5519.845041 5798.316896 11067.819327 2553.930764 2624.235993 2648.075560 5994.795400 5956.494577 2365.964539 7434.393795 2569.239891 2572.410131 6462.736915 15140.360575 5390.475449 2811.688890 5911.251537 2663.069721 12397.572376 6159.874902 6800.131608 7462.384496 2478.783984 11354.892560 13574.460950 9555.839399 6180.086946 5342.458111 5999.122125 14015.263804 13841.726248 21084.330405 11022.966474 19944.769831 16395.931421 13066.695262 948.547552 948.992910 949.345666 949.637569 21255.825995 21173.758443 21000.384014 20633.995299 9350.556191 2432.912627 7516.771770 10939.993572 11530.403822 7322.515916 14062.756277 9731.097188 4341.000176 8514.910982 8596.448195 5720.041785 6405.507611 2466.275256 6026.310042 5625.013176 2684.876723 6288.425012 3819.591563 6338.054032 2367.506541 2005.936355 2845.758289 8248.289071 13614.809629 13696.562082 2513.363656 14557.451201 2425.947917 5592.242316 5735.459746 5363.940293 8173.957881 5180.973302 10298.630722 6825.987902 12573.195550 15597.592001 14220.456950 4567.793828 860.800223 861.233838 861.581492 861.867729 20738.901605 20677.134693 20596.002157 20300.101497 6416.748409 2270.921797 9015.026995 14321.280311 25828.582259 13354.465686 12220.353035 14685.249330 5886.194273 6886.227056 19767.116297 3255.447436 1807.229192 11184.388314 6037.987326 11031.808098 6106.309074 14153.279101 9653.960348 2234.070692 12930.160305 1886.675364 2274.868039 2071.477190 11153.939939 2643.122933 3349.127539 11581.891142 6072.388791 7091.987101 2610.809972 4409.669374 5722.010620 5745.511959 4552.575774 6555.276352 5900.464027 7118.661963 6182.710209 12848.451079 776.545334 776.963984 777.301368 777.578562 20164.577772 20077.959147 19941.470920 19694.970028 11635.428671 10579.767624 12985.716131 6610.376277 6047.577307 14336.927869 6938.749009 17219.039422 15591.671530 13253.484492 7085.280613 2414.742675 12761.364202 12267.099741 13243.892633 6874.119139 13054.959562 20364.899570 8127.263009 14469.362011 14565.238534 8519.812817 6372.206881 4798.425017 13176.724228 6425.178572 6371.991682 6529.111755 7248.357885 5309.234536 1853.072176 7722.878058 6921.366939 6116.881184 9132.562112 14806.913351 5911.977275 6263.140017 14099.662178 14210.903582 695.632726 696.035308 696.360461 696.627360 19544.986732 19427.450107 19257.170769 18989.461052 2084.698023 6369.145263 6294.685390 14354.354237 8994.289338 6562.133375 30106.278069 13529.247914 13656.788541 3918.932924 5317.892477 8072.056290 11785.742978 15288.584376 7827.019325 8970.670548 14180.092742 2955.995487 5183.670596 22340.402380 2300.034555 9218.386901 17860.540362 11707.173881 12904.922926 10004.350482 6109.820291 13217.272626 2474.839382 7865.818380 2973.319846 6994.318384 6817.401293 7738.031557 11686.272920 8678.386934 6733.175506 6477.502659 6522.893417 5700.035312 617.918690 618.304973 618.617258 618.873490 18911.026978 18699.835746 18226.852965 17635.419506 12459.837360 6126.029864 16432.018229 29515.610037 6476.683294 14155.864357 13674.782700 7791.828971 5927.713303 22886.764039 13107.043681 12605.513726 11419.202027 1884.650070 2819.326666 9547.008780 13789.842801 13360.591125 14720.329466 2090.314374 13455.589659 11282.340154 14190.959143 12843.256101 10169.160240 17014.701068 14904.780546 10540.921084 5693.294098 13353.700887 13163.758319 5609.306022 5925.415339 6136.520782 14314.833156 5577.089922 11656.214289 11485.710742 6095.357929 6878.522639 543.264393 543.634495 543.933820 544.179374 18329.533382 18111.952430 17694.683937 17157.771563 2062.452347 14174.380391 14339.362822 7929.614869 8716.541612 20558.715287 4015.884388 4861.182289 14821.503273 13825.105294 11671.448280 3854.324480 7638.372218 9869.005941 5358.204819 2728.678849 9946.291563 2962.720581 6976.726824 8137.731697 5423.150069 14423.070570 8231.543168 1953.467060 14172.734426 11775.439594 6230.816366 13330.802088 9661.640719 5083.691603 13068.721410 15275.341332 26322.041633 9453.648853 8292.928972 7018.122062 8183.586511 6366.120489 6885.968578 6346.677801 471.535096 471.889273 472.175769 472.410777 17811.293506 17569.236294 17103.912317 16594.707095 13525.132053 5994.942463 6036.860077 12811.383432 18608.215863 9855.158760 5507.038871 14916.922296 22326.359024 27318.077891 25760.001871 12848.630558 2584.712111 13157.113468 13359.125358 7196.046126 18397.884310 24481.409280 12522.243816 2462.230986 5253.780358 13471.148818 15287.519944 6109.046819 10682.579869 10229.814207 -9871.860629 19878.659192 22181.969078 23771.922978 25912.240080 6718.110931 13214.003828 14307.831596 3043.900049 9015.953356 6151.351806 10386.526435 5071.732360 5893.975602 402.599749 402.938310 403.212194 403.436848 17366.459900 17111.218436 16628.878461 16125.650856 16006.409387 7572.275376 39203.284027 14470.411449 13686.625579 18134.359575 5122.276325 15088.720989 6629.250654 14413.886047 14514.428713 12084.746164 15217.151389 8366.696268 17387.785927 11084.294277 13737.877581 3932.054067 13723.545304 14374.441514 556.038102 6787.281905 21308.181597 9173.589401 11501.640479 9607.146212 11729.368967 12157.875205 21278.723078 14485.662229 11818.963543 11808.520688 2316.475295 14190.782335 25291.646908 10124.040511 13518.044754 6530.684179 23584.973704 5496.746290 336.330766 336.654041 336.915568 337.130080 16996.586822 16706.073897 16030.759730 15283.799076 7342.962806 14460.027242 8853.148218 5293.532675 9810.718557 14422.907634 2516.389438 18731.661962 22816.979491 -1753.666372 15225.993499 22859.568908 20720.835508 3607.506422 6544.056405 12371.199713 7339.515992 13337.956357 11803.343426 2247.156735 2362.547212 -9342.464341 9608.354198 15355.724174 12051.729959 14141.631983 14290.462563 12656.470737 13438.491915 15954.002672 12079.036185 7541.574753 23122.274645 14379.130634 4103.573968 10385.341463 8786.953565 9390.219461 27444.348665 4418.366098 272.603899 272.912229 273.161669 273.366264 16701.304974 16446.945580 15871.756210 15175.224185 10027.012030 24218.489479 14095.965837 7415.062994 9179.260975 13805.519071 14652.898284 12673.064300 11827.021063 20576.267769 14507.134412 10970.319538 26094.141724 14085.706703 8078.995740 14337.337336 27382.128574 19796.556005 24955.452859 -823.726272 14440.357173 1916.140652 6989.548315 6192.246664 -2768.695415 13194.816500 25312.648678 25305.762265 18715.471307 13957.778738 14136.954861 7903.511588 21135.163673 27170.720368 9660.911771 13759.583956 8846.593144 13888.909303 10041.478590 12131.440667 211.298185 211.591919 211.829552 212.024461 16437.541754 16208.775173 15689.422596 15079.056113 152.295934 152.575429 152.801544 152.987005 16186.559035 15997.154532 15608.750357 15116.731261 95.482750 95.748374 95.963270 96.139528 15944.252938 15786.883690 15515.414299 15148.260910 40.747578 40.999714 41.203699 41.371008 15712.393434 15530.630510 15142.152903 14739.479741 -12.017226 -11.778183 -11.584788 -11.426165 15515.047627 15372.486698 15137.417542 14869.020077 -62.915823 -62.689463 -62.506327 -62.356117 15332.614158 15177.828472 14870.968937 14563.823830 -112.048808 -111.834706 -111.661485 -111.519407 15175.728083 15006.253210 14624.329020 14261.414784 -159.513128 -159.310846 -159.147185 -159.012947 15055.984572 14934.430078 14710.570308 14468.025262 -205.402004 -205.211090 -205.056624 -204.929927 14942.240625 14888.101441 14848.438510 14728.237291 -249.804861 -249.624854 -249.479209 -249.359745 14789.280038 14734.771560 14647.384669 14531.398839 -292.807275 -292.637703 -292.500497 -292.387954 14596.425991 14514.826476 14350.698205 14265.453614 -334.490922 -334.331306 -334.202153 -334.096213 14376.655834 14286.951038 14152.498107 14140.019710 -374.933557 -374.783413 -374.661922 -374.562265 14125.209372 14002.120490 13725.058565 13518.541672 -414.208998 -414.067842 -413.953619 -413.859923 13834.795628 13706.359901 13440.864448 13189.512692 -452.387137 -452.254483 -452.147137 -452.059080 13476.439942 13320.825137 12999.468971 12721.279822 -489.533966 -489.409331 -489.308472 -489.225734 13062.012197 12880.604986 12456.077957 12092.140556 -525.711615 -525.594523 -525.499764 -525.422029 12639.918121 12491.538268 12157.603021 11849.273665 -560.978420 -560.868401 -560.779363 -560.706320 12232.194693 12147.183277 12010.428516 11849.048868 -595.388997 -595.285590 -595.201902 -595.133245 11831.893159 11744.599394 11559.362174 11391.746386 -628.994333 -628.897092 -628.818391 -628.753824 11465.503727 11377.180980 11168.108141 10992.813007 -661.841900 -661.750390 -661.676326 -661.615561 11149.298303 11098.386927 11014.736967 10955.968824 -693.975769 -693.889572 -693.819806 -693.762566 10857.791191 10837.015684 10820.839573 10814.103396 -725.436746 -725.355459 -725.289666 -725.235685 10562.890450 10547.651407 10529.489406 10513.303210 -756.262512 -756.185752 -756.123622 -756.072644 10260.624678 10227.460846 10158.230385 10124.762301 -786.487772 -786.415174 -786.356412 -786.308197 9969.610010 9925.763027 9826.304572 9808.919758 -816.144415 -816.075635 -816.019962 -815.974281 9699.923958 9673.523126 9615.845504 9628.621154 -845.261676 -845.196389 -845.143544 -845.100183 9434.222541 9449.153025 9512.950835 9574.694681 -873.866302 -873.804207 -873.753945 -873.712702 9140.279688 9160.736439 9218.095295 9255.749726 -901.982725 -901.923540 -901.875635 -901.836325 8817.735348 8826.362549 8843.693561 8820.396688 -929.633232 -929.576700 -929.530941 -929.493393 8487.168115 8479.074661 8449.521261 8392.110903 -956.838143 -956.784026 -956.740223 -956.704279 8171.437145 8171.049775 8185.018868 8167.850024 -983.615982 -983.564065 -983.522044 -983.487563 7873.443462 7876.549052 7894.599422 7873.672651 -1009.983653 -1009.933745 -1009.893351 -1009.860205 7595.418302 7599.813882 7626.969566 7589.344415 -1035.956617 -1035.908548 -1035.869643 -1035.837719 7343.644797 7329.066138 7274.862131 7160.550719 -1061.549060 -1061.502682 -1061.465146 -1061.434347 7132.966021 7128.190583 7119.767479 7055.552099 -1086.774071 -1086.729256 -1086.692989 -1086.663231 6953.714498 6960.119899 6984.888337 6965.106253 -1111.643806 -1111.600451 -1111.565366 -1111.536580 6787.571517 6793.090988 6823.446427 6829.108102 -1136.169661 -1136.127683 -1136.093715 -1136.065846 6627.182909 6616.083676 6598.643946 6549.202128 -1160.362441 -1160.321778 -1160.288875 -1160.261883 6482.990336 6438.726425 6311.404184 6182.711536 -1184.232518 -1184.193129 -1184.161260 -1184.135117 6379.589704 6342.749329 6265.940888 6181.500576 -1207.790002 -1207.751867 -1207.721015 -1207.695708 6313.741906 6282.223580 6216.637401 6146.092785 -1231.044898 -1231.008018 -1230.978182 -1230.953712 6276.038452 6255.055466 6209.624306 6132.422435 -1254.007271 -1253.971664 -1253.942859 -1253.919238 6252.219828 6234.993786 6194.603739 6110.118166 -1276.687398 -1276.653102 -1276.625356 -1276.602606 6232.916385 6216.718630 6178.557848 6097.061278 -1299.095938 -1299.063003 -1299.036347 -1299.014499 6212.856689 6188.741798 6105.269057 6021.331867 -1321.244086 -1321.212565 -1321.187025 -1321.166106 6190.717912 6191.847886 6210.346030 6258.127111 -1343.143750 -1343.113680 -1343.089240 -1343.069252 6141.982760 6156.186765 6217.161788 6309.989966 -1364.807756 -1364.779101 -1364.755624 -1364.736491 6053.987059 6051.913710 6051.809485 6086.959158 -1386.250122 -1386.222649 -1386.199687 -1386.181128 5946.082802 5924.779365 5861.710889 5841.604606 -1407.486508 -1407.459482 -1407.435824 -1407.417050 5842.440538 5822.247152 5776.683747 5758.447141 -1428.535094 -1428.506559 -1428.479142 -1428.458130 5743.973689 5720.924847 5660.322622 5616.649459 -1449.418480 -1449.383530 -1449.344840 -1449.316599 5642.405630 5619.848383 5566.859428 5555.245344 -1470.168023 -1470.114690 -1470.046544 -1469.998939 5524.891943 5510.816522 5499.519269 5551.340182 -1490.834005 -1490.733488 -1490.592145 -1490.495852 5375.318667 5360.820758 5357.980922 5445.781265 -1511.509588 -1511.293285 -1510.973769 -1510.757912 5188.133419 5173.379842 5166.573743 5257.781930 -1532.386996 -1531.893839 -1531.144070 -1530.636362 4966.833617 4957.714069 4950.536208 5012.711211 -1553.884207 -1552.751362 -1550.960376 -1549.738007 4717.371805 4716.267309 4718.723500 4738.917498 -1576.942121 -1574.397922 -1570.047646 -1567.066310 4445.333329 4453.443159 4479.463147 4481.577888 -1605.747121 -1598.759044 -1587.281652 -1580.174420 4155.240576 4165.721935 4198.496695 4172.249007 -1656.128981 -1628.109472 -1597.851889 -1583.849529 3857.661745 3851.322178 3817.686325 3719.211143 -1693.945026 -1635.821494 -1588.420719 -1570.731368 3576.102110 3565.929898 3535.118651 3447.918432 -1645.312753 -1588.815172 -1551.626544 -1536.789031 3324.274679 3312.451742 3288.579364 3210.250680 -1531.396314 -1511.995542 -1493.956022 -1484.772733 3109.234412 3088.287724 3033.670251 2936.622289 -1440.016840 -1433.610486 -1425.558889 -1420.921299 2939.483487 2924.632364 2895.541399 2796.351623 -1358.697688 -1356.220408 -1352.796528 -1350.664342 2812.862190 2788.491971 2717.982818 2608.501555 -1280.650927 -1279.642186 -1278.191615 -1277.253125 2734.199045 2721.681337 2698.800813 2639.735721 -1203.750684 -1203.324031 -1202.706003 -1202.297844 2694.457480 2690.461464 2677.371154 2608.611451 -1127.165909 -1126.978143 -1126.710621 -1126.531329 2683.039412 2687.450484 2686.175605 2612.221438 -1050.565377 -1050.477858 -1050.358573 -1050.277282 2688.820840 2708.927403 2750.390197 2713.815755 -973.819431 -973.775479 -973.720146 -973.681504 2695.197451 2722.570780 2762.348806 2733.565889 -896.883310 -896.860291 -896.834784 -896.816262 2689.540854 2732.783892 2802.160767 2787.241425 -819.749122 -819.739497 -819.732156 -819.726082 2653.749302 2709.876254 2827.885308 2858.571981 -742.424678 -742.429459 -742.441407 -742.448591 2574.523442 2612.143950 2685.530991 2710.853583 -664.921523 -664.950677 -664.996393 -665.026496 2465.164180 2482.186963 2508.639490 2509.280886 -587.242359 -587.322561 -587.441201 -587.520073 2345.622499 2349.769621 2354.452705 2348.555924 -509.357395 -509.553936 -509.840525 -510.029943 2230.110264 2223.298028 2199.501228 2171.466889 -431.149115 -431.622747 -432.304190 -432.747143 2128.811682 2120.895625 2103.532113 2079.535268 -352.273341 -353.435073 -355.050153 -356.064337 2043.540288 2034.944393 2017.739474 1994.870463 -271.781565 -274.770119 -278.576256 -280.805824 1974.569735 1963.785912 1935.890716 1898.790717 -186.949074 -195.419109 -204.137400 -208.616940 1922.985589 1913.396245 1891.452109 1856.964761 -88.707515 -117.622386 -134.670197 -142.339676 1887.190226 1879.335088 1861.149480 1830.359313 1803.359948 1782.737591 1785.029742 1805.896378 1821.334248 1832.402305 1841.040747 1847.582012 1852.092555 1854.563322 1854.968189 1853.277667 1849.459442 1843.476090 1835.283428 1824.830392 1812.060364 1796.913534 1779.329843 1759.252080 1736.628832 1711.417058 1683.584158 1653.109500 1619.985384 1584.217507 1545.824972 1504.839937 1461.306965 1415.282162 1366.832163 1316.033027 1262.969085 1207.731780 1150.418524 1091.131589 1029.977044 967.063715 902.502153 836.403495 768.877999 700.032688 629.966786 558.761739 486.458048 412.999365 338.091843 260.823226 178.486845 81.992292 -2.904111 -50.017520 -75.156210 -85.764849 1864.339458 1858.331170 1845.142383 1825.993676 1810.223657 1800.984230 1803.202314 1812.399763 1823.111300 1832.862051 1840.984847 1847.306297 1851.717526 1854.141284 1854.522046 1852.816910 1848.987295 1842.992920 1834.788479 1824.322712 1811.539294 1796.378960 1778.782285 1758.692691 1736.059328 1710.839616 1683.001301 1652.523976 1619.400060 1583.635264 1545.248628 1504.272183 1460.750313 1414.738914 1366.304388 1315.522553 1262.477493 1207.260413 1149.968498 1090.703811 1029.572247 966.682524 902.145217 836.071788 768.573514 699.760076 629.737257 558.602448 486.435049 413.275641 339.084222 263.684523 186.903186 111.015567 44.717100 -2.228866 -30.236282 -42.384606 1851.563634 1847.090497 1837.831431 1826.130546 1815.975431 1810.644794 1811.425588 1817.159996 1825.252252 1833.621758 1841.113555 1847.149058 1851.429691 1853.792497 1854.143285 1852.421473 1848.580309 1842.575784 1834.361033 1823.884330 1811.089462 1795.917555 1778.309697 1758.209840 1735.567620 1710.340863 1682.497629 1652.017719 1618.893666 1583.131211 1544.749353 1503.780018 1460.267446 1414.267358 1365.845959 1315.078859 1262.049934 1206.850183 1149.576596 1090.331068 1029.219364 966.350160 901.834182 835.783484 768.310965 699.530365 629.557310 558.512788 486.532502 413.790961 340.564621 267.404644 195.616651 128.189836 70.166175 26.255233 -1.699138 -14.244076 1846.375178 1842.708189 1835.274382 1826.166666 1818.332971 1814.202198 1814.776138 1819.390127 1826.368546 1834.013226 1841.116344 1846.959446 1851.146715 1853.463652 1853.790711 1852.055012 1848.203829 1842.190295 1833.966293 1823.479715 1810.674439 1795.491938 1777.873763 1757.764350 1735.113791 1709.880299 1682.032235 1651.549610 1618.425079 1582.664425 1544.286619 1503.323504 1459.819196 1413.829257 1365.419715 1314.665991 1261.651769 1206.467856 1149.211062 1089.983114 1028.889642 966.039251 901.542723 835.512466 768.062420 699.308986 629.374268 558.394690 486.542114 414.073485 341.442542 269.531206 200.040803 135.868813 80.860427 38.558229 11.047237 -1.488476
</DataArray>
<DataArray type="Float64" Name="Velocity" NumberOfComponents="3" format="ascii">