<VTKFile type="PolyData">
<PolyData>
<Piece NumberOfPoints="2064" NumberOfVerts="2064" NumberOfLines="0" NumberOfStrips="0" NumberOfPolys="0">
<PointData>
<DataArray type="Float64" Name="Pressure" format="ascii">
 15491.822400 15436.260951 15341.362187 15221.723458 15099.794630 14987.009043 14874.260655 14747.334052 14604.096962 14449.956486 14285.517954 14108.159372 13915.753119 13707.740546 13484.258709 13245.882331 12995.038249 12735.284095 12469.502124 12199.422120 11925.981025 11649.680721 11370.800760 11089.526509 10806.029618 10520.516069 10233.251023 9944.567366 9654.863364 9364.593591 9074.256188 8784.378680 8495.503822 8208.176441 7922.931826 7640.285929 7360.727473 7084.711894 6812.657013 6544.940245 6281.897186 6023.821388 5770.965220 5523.541845 5281.728638 5045.673098 4815.503998 4591.354364 4373.411818 4162.031265 3957.982854 3762.958996 3580.419056 3416.366798 3278.713325 3174.495071 3107.501326 3077.396325 15443.695622 15384.601325 15276.236078 15136.930552 15003.277053 14899.258507 14802.390286 14680.410295 14537.177300 14392.329074 14242.167779 14078.433899 13896.694750 13696.938018 13479.915250 13244.264390 12993.748135 12733.986167 12468.344442 12198.415713 11925.073140 11648.829431 11369.985307 11088.742918 10805.284760 10519.822762 10232.624441 9944.022576 9654.413761 9364.250004 9074.026481 8784.267688 8495.513508 8208.306186 7923.178789 7640.645433 7361.193386 7085.276989 6813.313289 6545.679200 6282.710019 6024.699097 5771.898506 5524.520618 5282.740613 5046.700319 4816.514480 4592.282412 4374.112507 4162.179046 3956.864857 3759.145553 3571.649218 3400.672458 3256.831420 3149.607201 3082.044499 3052.083614 15378.755054 15311.875010 15174.965714 14980.934190 14805.459539 14734.811592 14695.169226 14574.217107 14407.520461 14280.638142 14163.264668 14028.320034 13865.209640 13680.251652 13478.167122 13245.951614 12992.986025 12732.583171 12467.216272 12197.489207 11924.261021 11648.079944 11369.273657 11088.061864 10804.637900 10519.219760 10232.077641 9943.544687 9654.016355 9363.942632 9073.816244 8784.159120 8495.508670 8208.404891 7923.378892 7640.943160 7361.583657 7085.753728 6813.869698 6546.307984 6283.403539 6025.449385 5772.697023 5525.357419 5283.602189 5047.564298 4817.336935 4592.967598 4374.440921 4161.636858 3954.243447 3751.642544 3553.247959 3364.034889 3203.079958 3090.577428 3023.899733 2995.248289 15312.065742 15246.856652 15096.893857 14842.021989 14577.624094 14570.626955 14675.238061 14575.882174 14359.359329 14223.473802 14093.261828 13964.840448 13807.173048 13632.074759 13443.788932 13230.303645 12987.396381 12730.530532 12465.988043 12196.563097 11923.476467 11647.369391 11368.606214 11087.426414 10804.035064 10518.656852 10231.565201 9943.094105 9653.638313 9363.646164 9073.608240 8784.044151 8495.489034 8208.480785 7923.548669 7641.203620 7361.930342 7086.181213 6814.371846 6546.878173 6284.034819 6026.134546 5773.428474 5526.126673 5284.398444 5048.370916 4818.122902 4593.666890 4374.901973 4161.494734 3952.573503 3745.892937 3535.228570 3300.347907 3100.881389 2991.125392 2932.440231 2907.842923 15253.639165 15215.132655 15137.269214 14945.861824 12331.305850 14744.088199 11191.411417 13017.638835 11411.697492 11770.511691 12240.999247 11235.486885 12201.044238 11304.023131 12663.348539 12842.778886 14612.087062 12448.097666 12227.075128 12846.492205 12353.094144 11511.951294 13397.308886 12368.892220 12625.075114 12809.159057 12255.032061 11179.879068 12631.797340 12306.348870 14248.755522 9467.366132 12600.434849 14389.232858 14221.465245 12702.021996 12250.652318 12731.317810 12495.665206 12512.404549 7689.026893 11978.876233 11106.264155 13674.743612 2916.817659 2851.501268 2812.503533 2795.078822 15193.242283 15189.394126 15213.948774 15185.844281 12564.386553 11344.672668 12096.172026 10812.566780 12574.585524 12314.284907 11759.846065 13507.221087 15044.937601 12132.577149 11822.500327 14554.708394 11817.591404 12737.241906 12589.948312 11011.922723 13201.094157 12138.678977 13670.556437 14302.093520 12805.256447 10536.205374 7806.030245 11015.131194 12598.357690 12757.671527 12462.460317 12258.421616 12424.390191 9911.480698 12086.260534 14990.832224 11747.928078 14450.678810 10642.701202 12463.855703 12313.360126 12793.594807 12680.443304 10733.389129 2713.411352 2694.764894 2675.256204 2665.356630 15117.467738 15126.569175 15154.947224 15179.175521 13056.895132 11304.995660 8874.526483 11899.652722 11283.803489 12131.620977 12639.242710 12441.268907 12558.842463 9852.822479 10410.865625 9468.429416 11784.454055 12888.063926 12123.752996 9053.202885 11288.045700 10658.602930 11319.604468 9832.171671 12219.991022 12802.106608 12582.669284 15049.392998 12584.370641 12543.305682 12198.087546 8665.617376 14084.563839 14593.288425 12434.072053 12072.199630 9882.674211 12476.304780 9872.627479 12520.973091 14892.944900 12471.999533 12259.797541 12748.087066 2546.518389 2540.355581 2532.165657 2527.482563 15031.309288 15056.202328 15097.815276 15089.804910 8560.887304 12222.887151 11940.606218 12440.957943 12520.518790 11747.784310 12678.363024 11873.879572 12070.461772 13141.642522 10394.275565 14217.288850 11771.353263 10309.219732 10268.658586 14348.433217 13524.402262 12142.898448 10945.971478 13658.526292 11449.094767 11238.691217 11822.469599 12311.341085 15006.876953 12704.594933 12149.069131 11039.633586 10768.962015 14907.895185 9889.585574 11951.655199 14781.200829 8115.600001 14650.273867 12388.570538 12513.766117 11998.206706 14734.718788 11118.394465 2394.953362 2392.942058 2389.765655 2387.868438 14938.473180 14985.518348 15087.591128 15111.027739 9817.845765 9308.478102 11157.824020 9506.908600 12258.017803 11861.408475 11053.322662 11517.613836 12884.948905 12308.253565 10700.908803 12732.955878 12221.481334 8042.130520 11894.012188 14444.726727 11491.123859 8694.227762 11397.333404 10628.210965 9606.471170 12289.460765 11115.863091 13517.096664 10001.566013 11763.067013 12852.998535 9720.289569 9977.707214 10373.375341 12343.532418 8874.664554 10399.224312 13462.886996 11388.181956 10637.944228 12056.466470 12802.043176 9102.944297 10187.338836 2252.209184 2251.744062 2250.685628 2250.082028 14835.646280 14886.332890 14977.411701 14993.787784 11745.919035 11037.306232 7758.007678 8865.227676 7767.173135 8983.168994 12614.153581 10741.107875 11372.464161 6849.939418 9806.424304 6277.752296 11948.650175 12688.655530 10411.300065 6146.994036 6415.059183 13396.332134 11412.389383 14504.390161 10552.333857 9787.195439 12361.708567 9299.485733 11273.613929 11599.264457 10038.295736 12068.908570 12019.226289 12596.888327 14848.766511 14320.696302 10561.672795 11279.877904 12239.688270 12482.188762 12104.306448 8410.773204 11798.000336 12336.904608 2115.856614 2115.997380 2115.820056 2115.778850 14724.861559 14778.365246 14879.795539 14951.839894 7005.213603 9330.437285 4587.156366 5825.254964 11074.932062 10183.653886 10319.140868 9764.513352 13362.387670 7428.866545 11129.133089 6946.484378 12733.815093 10022.665260 6753.410444 10718.449493 7056.918943 9292.682753 11153.104850 10813.616754 10976.327634 16228.718939 6856.080258 10068.529576 10899.483436 11412.301775 11702.708235 12905.317792 11106.491511 11968.753193 14204.249882 13427.740822 10255.458780 10915.753542 12277.431754 11730.094589 14387.793381 12340.867566 12479.991941 9729.910617 1984.864934 1985.244425 1985.428597 1985.622009 14602.828287 14653.948847 14768.726448 14900.328853 4948.872488 6810.049816 4514.362646 10276.454176 4378.875939 4300.978353 9504.891877 5626.768750 6754.061357 9240.196186 6278.562760 8142.091438 10213.939521 10230.376794 8385.942618 4363.445189 14149.680185 11701.511947 4148.465362 6760.976018 10972.647778 7669.802307 5976.517488 10128.578615 11040.806042 13152.102184 8786.553428 14521.887347 8749.114355 11673.857716 9362.711903 10993.180941 11046.244419 10910.541090 12467.724756 13582.882676 11397.631553 12068.249513 12001.891373 11377.112074 1858.734019 1859.203348 1859.531471 1859.818086 14466.658910 14492.754956 14534.894008 14631.925552 4264.799077 6827.503176 8680.249993 3864.132032 4053.068444 1597.521707 6737.839700 5009.186319 4982.336142 11862.632261 4346.884499 8109.468438 11063.731804 7053.662789 6842.324318 10258.790270 6257.109457 6723.408379 9986.424280 11162.500513 10846.020300 7495.402857 10706.523366 5250.927665 8176.642055 11494.609566 12189.923156 10091.232826 11113.438026 11513.049374 13666.097348 13424.609988 11496.304013 11255.280498 14831.612327 12069.276448 11524.517971 11686.215653 11950.271376 12711.734046 1737.175837 1737.673538 1738.054575 1738.374388 14323.696193 14350.805632 14424.633778 14556.870067 3418.543784 4089.688531 10945.145255 10321.223251 9380.189676 9128.173478 11467.503264 4294.429526 4482.403922 3930.288970 8322.761566 9404.919268 4808.255384 6717.303004 3835.407773 4004.048700 7154.086763 10634.615358 6570.524576 4524.304386 7375.517199 4347.909400 8995.375514 8886.742748 7184.274837 10515.039308 4107.402314 11328.464268 12060.125509 9908.276305 9273.150183 9035.901294 6825.829353 11121.892204 11904.410536 14502.294230 10907.767258 12451.479490 12398.797738 11796.175168 1619.989364 1620.489844 1620.885687 1621.213415 14161.763382 14184.932599 14257.904224 14391.242637 11210.775346 4494.091900 8846.282708 9405.435935 10040.376422 10442.621672 10845.005114 7052.196156 6605.794883 10350.823959 10518.197452 9201.583120 6796.628332 4898.604829 6854.917126 6635.783014 4496.783346 9045.477929 6360.375314 6763.267294 3919.991661 4789.173632 4442.791251 11305.787456 11155.126184 11011.793319 3817.122352 11177.479100 4409.567573 6804.176760 9541.004586 9757.343657 9116.275462 10057.928213 11230.290305 9223.421998 11907.967264 12585.518915 12610.698203 11803.321682 1507.009980 1507.502546 1507.897245 1508.222271 13970.402154 13984.717505 14043.349857 14129.642046 9342.931272 5560.108155 9287.136421 12088.494364 14482.344993 12769.225698 10131.281813 9883.475929 11355.410182 10581.728320 14811.913526 5930.962144 3401.035675 11312.401262 7978.921936 11302.934167 9832.812623 11637.374291 11113.966050 5293.681387 9897.709948 3128.994454 4515.660399 4467.747374 11023.175012 4776.731796 4825.471654 11753.006217 6794.884731 12380.182295 3991.814729 6720.814358 12680.609854 7891.689874 7062.235790 11683.455291 12966.214268 6364.358860 6444.102751 12883.814443 1398.088823 1398.569017 1398.955910 1399.273798 13749.749427 13736.602566 13710.213654 13633.741433 8871.725707 11287.000263 11911.869475 7011.329315 6320.359799 8681.427679 6141.135917 13601.698493 12017.185376 11118.616687 10011.698624 4051.116655 11019.437940 11396.775807 10545.763969 11466.024154 11905.678630 8271.702562 10306.615883 12247.848100 11899.392865 10292.819812 10715.389536 8049.772690 11910.797114 6941.788110 7005.746460 6781.937670 10747.621977 14532.274204 3549.141631 10630.507833 10410.895446 9416.912779 10003.651185 8214.323964 8956.927917 6918.672918 11834.292006 12369.772235 1293.084414 1293.550414 1293.926746 1294.235663 13518.850690 13484.855752 13431.288196 13314.348410 4049.123755 8013.978133 11467.990375 11397.635385 10491.710272 6407.696290 11219.185476 7260.801883 11876.523024 5198.203772 12282.505078 11161.699555 10554.588872 9703.379394 10975.930399 9632.605006 12073.550661 10370.383331 10217.487249 3457.490563 5078.500722 9149.258513 11226.300992 11377.017618 11642.556596 8305.337495 8254.235829 12351.859985 4470.308033 11299.678720 4992.048803 10298.082536 10033.526527 7437.235151 11187.972834 -530.956317 6386.214882 8676.479026 9271.046414 8538.015839 1191.859358 1192.310466 1192.675137 1192.974361 13297.097689 13237.286304 13109.058137 12941.165515 6151.918978 10947.971915 8946.674318 3425.818191 7631.770223 12574.929681 8940.822261 8072.916782 12679.126486 14842.520142 12119.778720 11690.932149 11169.525396 3565.831851 4889.045858 11056.694473 11664.964309 12724.730949 9634.127355 3873.090579 11909.798845 11271.513462 10953.781884 8569.768655 10630.489690 12548.930274 9605.199803 10473.560417 6783.854531 10396.984033 12352.067625 10121.499915 13528.201625 10211.222372 9492.909531 6901.036068 11312.675205 11253.460716 9054.266382 9867.766993 1094.279122 1094.715134 1095.067757 1095.357044 13101.849801 13037.652706 12888.723081 12668.768528 4362.288385 12339.855144 12690.578863 9937.259078 9864.687757 14024.972576 6210.560546 12843.978854 11112.653246 10422.455005 11200.988258 12268.308570 7772.487476 10358.383007 9499.459933 4770.585908 10706.859621 3175.242929 7572.058389 5113.871949 8429.919785 11358.160870 11382.757281 3230.310113 12400.604829 10492.832643 7586.504578 12355.863202 11164.884824 7170.848479 11956.181123 11843.943405 14639.198192 10675.779061 10754.321355 9989.874035 10616.627644 13056.968251 7571.841696 7457.755843 1000.211670 1000.632611 1000.973111 1001.252432 12930.129179 12882.235325 12821.755524 12715.257554 12098.097698 10928.226069 10053.163188 12711.925711 8697.476152 10979.834402 8457.027569 9008.408565 13805.335900 14887.983292 13431.784799 7256.751358 4228.104514 12040.476404 11578.903109 10255.837598 14047.224373 13186.870456 11296.800418 5294.886631 6914.791874 11863.472342 8143.663807 5346.833858 11167.898116 9955.365625 7254.455964 9632.094731 13535.862392 8681.805469 14789.823795 10872.159382 11727.447061 11965.958315 10600.350393 10245.379295 8581.185694 10917.565482 7167.872232 6863.383577 909.527432 909.933440 910.261890 910.531317 12768.975881 12702.022408 12578.806629 12497.685690 9627.784211 10330.515607 8722.329646 12509.103451 11609.554858 13540.165208 6389.258662 12616.056101 9778.661344 9863.985608 12473.738779 12547.078834 7689.175113 10517.311753 11186.339904 10760.192157 12300.973334 12024.113451 12347.997575 7643.926810 12979.780060 9377.143691 14012.068375 11009.204498 11382.549878 11240.215187 8987.923193 12126.990866 14388.403520 12444.081714 9687.788721 12059.800039 4535.965805 12509.643607 13534.530254 10621.413676 12479.402935 6283.815282 14819.349116 6720.454398 822.099393 822.490670 822.807215 823.066874 12634.638389 12553.554371 12386.099266 12256.618002 10024.195212 9519.606455 10472.424871 9051.604710 6533.676994 12580.652246 2824.881939 10414.072252 7222.113779 -1907.291469 12400.692646 12748.963100 12020.318165 5084.561647 8365.643635 8590.882228 10329.945573 11883.149329 9553.624736 4653.970344 4664.189957 8634.233898 8568.463572 11689.935661 9150.848135 11120.030806 11672.041246 12001.222377 12283.732760 12388.701789 11150.285402 10071.354409 13790.536680 12088.928447 8247.548667 6516.976519 11271.024332 10239.163323 14698.915564 8982.185019 737.803219 738.180007 738.484837 738.734884 12543.058063 12465.500086 12327.431131 12229.520169 10877.180811 13752.460945 12202.918371 14309.066007 9214.951903 9908.921639 12630.571430 11956.283109 9741.284705 12551.891181 12085.795430 10961.981567 14016.558218 10830.424466 8721.443925 12399.337678 14912.396854 13234.074125 14535.478043 8341.505890 12156.905780 4163.388364 6291.710201 10545.780448 4558.323928 9793.894416 14811.486496 14197.483723 13581.559159 11007.171294 8564.946116 10567.076368 12570.277883 14735.605661 10693.760083 11913.016332 11188.247765 12476.395809 10854.102810 11582.309500 656.517383 656.879952 657.173282 657.413896 12493.643149 12416.240039 12235.479229 12098.775213 578.123273 578.471916 578.753981 578.985355 12477.210942 12441.096047 12387.400915 12338.312656 502.505284 502.840310 503.111362 503.333701 12456.632340 12445.153424 12474.127640 12527.688743 429.550892 429.872626 430.132925 430.346445 12415.604015 12383.544884 12301.951104 12267.292449 359.150708 359.459485 359.709303 359.914225 12375.695940 12347.479229 12281.947773 12266.704936 291.198514 291.494678 291.734292 291.930843 12346.601125 12342.339132 12334.341619 12376.650387 225.591283 225.875182 226.104875 226.293289 12320.387238 12341.090169 12371.396841 12458.751821 162.229184 162.501174 162.721233 162.901743 12287.148683 12363.328627 12570.560420 12776.579671 101.015581 101.276018 101.486730 101.659575 12226.175854 12300.755849 12444.910924 12581.479852 41.857009 42.106250 42.307905 42.473319 12150.935569 12223.109882 12371.222262 12508.768323 -15.336854 -15.098453 -14.905568 -14.747346 12071.500734 12112.632252 12189.524023 12326.757546 -70.653224 -70.425308 -70.240906 -70.089643 12007.088198 12024.686647 12041.328307 12143.807189 -124.176258 -123.958477 -123.782274 -123.637737 11970.131486 11983.286473 11982.650310 12109.298965 -175.987109 -175.779117 -175.610834 -175.472793 11957.002213 12021.687937 12178.569503 12399.754874 -226.163989 -225.965446 -225.804806 -225.673036 11926.017158 12020.334988 12268.230044 12564.004400 -274.782233 -274.592805 -274.439540 -274.313820 11856.495059 11932.673801 12097.663564 12313.070492 -321.914378 -321.733738 -321.587584 -321.467696 11770.740870 11805.962186 11824.628478 11925.106988 -367.630233 -367.458064 -367.318763 -367.204498 11702.719340 11752.385658 11849.307975 12015.607398 -411.996971 -411.832964 -411.700266 -411.591418 11646.388720 11725.596599 11917.611139 12143.508210 -455.079209 -454.923064 -454.796728 -454.693098 11585.978309 11672.678250 11854.047190 12064.942459 -496.939104 -496.790532 -496.670324 -496.571721 11525.536866 11610.114715 11765.816885 11946.441845 -537.636445 -537.495169 -537.380863 -537.287103 11472.614176 11562.173647 11785.287429 12053.518032 -577.228754 -577.094507 -576.985889 -576.896795 11430.836554 11486.585489 11588.222994 11751.397483 -615.771388 -615.643915 -615.540778 -615.456181 11422.521679 11459.671985 11494.903658 11576.028462 -653.317640 -653.196700 -653.098850 -653.018590 11450.089181 11507.334589 11620.032411 11717.647785 -689.918855 -689.804219 -689.711470 -689.635395 11480.130658 11529.978400 11654.141863 11783.730290 -725.624536 -725.515988 -725.428167 -725.356135 11499.655859 11503.096426 11482.383061 11474.721143 -760.482462 -760.379802 -760.296745 -760.228623 11525.919599 11494.767940 11364.859998 11227.457749 -794.538803 -794.441844 -794.363402 -794.299067 11559.332322 11550.730249 11547.556281 11490.168966 -827.838247 -827.746819 -827.672853 -827.612190 11565.740892 11530.399954 11429.096548 11289.477534 -860.424120 -860.338067 -860.268452 -860.211360 11545.464149 11487.774798 11325.208834 11124.694358 -892.338519 -892.257702 -892.192325 -892.138710 11503.520024 11459.295097 11318.042517 11101.214167 -923.622440 -923.546737 -923.485499 -923.435281 11415.177707 11415.745607 11410.320328 11276.545785 -954.315917 -954.245223 -954.188039 -954.141150 11241.010936 11263.920306 11354.511252 11294.877901 -984.458165 -984.392392 -984.339193 -984.295575 10978.975977 10935.563655 10772.590466 10542.336373 -1014.087719 -1014.026800 -1013.977531 -1013.937139 10687.788507 10642.843903 10499.804275 10293.807027 -1043.242594 -1043.186481 -1043.141103 -1043.103904 10380.556535 10365.555468 10368.173192 10295.362886 -1071.960435 -1071.909099 -1071.867589 -1071.833567 10050.674881 10000.468478 9864.834777 9693.119940 -1100.278684 -1100.232118 -1100.194472 -1100.163622 9736.925419 9673.006441 9481.024168 9240.806815 -1128.234749 -1128.192971 -1128.159201 -1128.131534 9457.366789 9422.093594 9338.046996 9262.989748 -1155.866192 -1155.829239 -1155.799378 -1155.774922 9186.603310 9164.097021 9087.654790 9039.937287 -1183.210910 -1183.178848 -1183.152947 -1183.131744 8893.269294 8870.103675 8799.713968 8776.983471 -1210.307345 -1210.280265 -1210.258397 -1210.240508 8552.995172 8504.103364 8349.624880 8267.933259 -1237.194704 -1237.172722 -1237.154977 -1237.140477 8176.887960 8113.099070 7935.081690 7848.609995 -1263.913190 -1263.896446 -1263.882930 -1263.871910 7797.769870 7752.226370 7666.072844 7648.061694 -1290.504268 -1290.492919 -1290.483737 -1290.476292 7434.586677 7398.750833 7340.263537 7337.269267 -1317.010964 -1317.005160 -1317.000386 -1316.996591 7104.618359 7055.426850 6925.676318 6849.542822 -1343.478218 -1343.478050 -1343.477636 -1343.477495 6830.346375 6796.544176 6710.420983 6696.942816 -1369.953359 -1369.958720 -1369.962289 -1369.965590 6607.075509 6628.330203 6682.074472 6765.086498 -1396.486805 -1396.497056 -1396.503401 -1396.509386 6403.061083 6477.433313 6650.976635 6820.549935 -1423.133274 -1423.146452 -1423.152331 -1423.158886 6194.489920 6311.460416 6576.871577 6832.812668 -1449.954176 -1449.965093 -1449.962347 -1449.964066 5972.364250 6120.393612 6468.913341 6842.026728 -1477.022725 -1477.018486 -1476.987147 -1476.970644 5740.936074 5894.895771 6235.599208 6652.033480 -1504.435399 -1504.384983 -1504.276794 -1504.209226 5521.782803 5666.866343 5952.319655 6351.026294 -1532.337873 -1532.168933 -1531.867782 -1531.668020 5337.752862 5499.368167 5857.140774 6388.768469 -1560.982431 -1560.534857 -1559.760728 -1559.223589 5187.665760 5353.069930 5710.328654 6323.480524 -1590.832545 -1589.815718 -1587.872631 -1586.459397 5069.092283 5241.609222 5618.638909 6309.811611 -1622.822936 -1620.864792 -1615.938513 -1612.167433 4969.758725 5161.687249 5603.094576 6322.557698 -1667.839675 -1658.655472 -1642.622539 -1633.093850 4862.217127 5055.759674 5504.060522 6175.928614 -1754.280001 -1703.817034 -1660.429456 -1642.233552 4726.877096 4907.012524 5322.096804 5897.551003 -1805.287755 -1708.733755 -1651.652380 -1630.610985 4556.583315 4702.076676 5019.836202 5435.136879 -1714.686614 -1649.757483 -1611.397991 -1594.904387 4360.564484 4477.171055 4759.522264 5108.856890 -1585.820209 -1568.321270 -1549.423901 -1539.721012 4153.974132 4214.731705 4345.489033 4546.958315 -1491.771460 -1485.520256 -1477.392735 -1472.625182 3974.127755 3994.948362 4024.916342 4148.927380 -1407.532554 -1405.154441 -1401.754809 -1399.631661 3846.615904 3865.955530 3913.532229 4053.836167 -1327.382280 -1326.466230 -1325.075254 -1324.184805 3764.574624 3801.558399 3901.557158 4050.847506 -1249.174123 -1248.843150 -1248.297163 -1247.948716 3706.226795 3751.108698 3865.541770 4005.078352 -1172.063002 -1171.972007 -1171.780710 -1171.664401 3661.287561 3700.299858 3799.341958 3917.217471 -1095.701396 -1095.710052 -1095.667708 -1095.649766 3635.426574 3644.406990 3650.370061 3711.811127 -1019.944200 -1019.994844 -1020.015602 -1020.039502 3650.116183 3639.611292 3601.515496 3672.313906 -944.731146 -944.800523 -944.849398 -944.891996 3715.472903 3710.145086 3693.925141 3838.154302 -870.038157 -870.118152 -870.182736 -870.235833 3815.503864 3847.768068 3935.491243 4159.349096 -795.855935 -795.946718 -796.027005 -796.090637 3907.423789 3968.412657 4107.629836 4327.178525 -722.178162 -722.288066 -722.396248 -722.478531 3957.420957 4026.203843 4161.906752 4350.563654 -648.989804 -649.141926 -649.312022 -649.435392 3955.996940 4027.640625 4165.566393 4353.041438 -576.245959 -576.497295 -576.812385 -577.030824 3905.182670 3980.154024 4131.206296 4324.936188 -503.823083 -504.314388 -504.973257 -505.411978 3810.886414 3885.096303 4032.093345 4201.281850 -431.396695 -432.488454 -433.963554 -434.900966 3683.393651 3756.327364 3904.923293 4039.110519 -358.109220 -360.801496 -364.195947 -366.196471 3533.753859 3598.608066 3729.235177 3821.934751 -281.538185 -289.045840 -296.746181 -300.714822 3376.463649 3424.844012 3514.231282 3567.589140 -193.684117 -219.175336 -234.164196 -240.917285 3229.795050 3262.428156 3322.539067 3385.471935 3365.726080 3213.183019 2972.897915 2709.817406 2499.679773 2356.115285 2245.287433 2155.346503 2079.664200 2014.113121 1955.914865 1903.110700 1854.277139 1808.355822 1764.544251 1722.222756 1680.904722 1640.202334 1599.802799 1559.451625 1518.940610 1478.098976 1436.786594 1394.888642 1352.311284 1308.978113 1264.827198 1219.808646 1173.882583 1127.017527 1079.189071 1030.378846 980.573711 929.765127 877.948673 825.123664 771.292840 716.462076 660.640061 603.837843 546.068022 487.343092 427.671752 367.050363 305.442648 242.730341 178.588682 112.148974 40.957579 -43.096503 -117.458866 -158.764232 -180.784204 -190.087635 3109.975286 3129.281010 3158.461018 3195.771756 3181.361365 3038.775141 2836.020847 2650.618374 2487.535176 2354.358496 2246.511734 2157.195770 2081.406404 2015.554914 1957.044671 1903.970982 1854.919089 1808.824829 1764.876739 1722.446878 1681.042041 1640.269472 1599.812753 1559.414733 1518.865226 1477.991937 1436.653538 1394.734241 1352.139416 1308.791997 1264.629510 1219.601610 1173.668060 1126.797084 1078.964042 1030.150384 980.342830 929.532735 877.715602 824.890694 771.060730 716.231614 660.412174 603.613851 545.850236 487.136242 427.486424 366.911275 305.408945 242.946919 179.425042 114.625841 48.335826 -17.496577 -75.226954 -116.172001 -140.616082 -151.235249 3029.537745 3039.955722 3048.853642 3044.127131 3001.354736 2897.503176 2757.539066 2609.488147 2471.028295 2349.637246 2246.200181 2158.286578 2082.758568 2016.780725 1958.044731 1904.747925 1855.505403 1809.256582 1765.185310 1722.657396 1681.174055 1640.338127 1599.829886 1559.389728 1518.805637 1477.903921 1436.542162 1394.603696 1351.993177 1308.632949 1264.460049 1219.423732 1173.483430 1126.607105 1078.769905 1029.953117 980.143335 929.331820 877.514004 824.689114 770.859867 716.032241 660.215299 603.421094 545.664728 486.964768 427.344515 366.835365 305.485293 243.380333 180.700601 117.873383 55.998431 -2.325794 -52.661743 -90.827988 -115.157993 -126.098004 2994.787098 3002.083525 3001.800156 2983.914636 2933.605740 2843.341400 2723.268677 2591.872065 2464.105045 2348.299739 2247.127160 2159.840936 2084.285003 2018.070568 1959.066859 1905.531524 1856.093421 1809.689251 1765.495663 1722.871190 1681.311021 1640.413383 1599.855142 1559.374197 1518.756687 1477.827527 1436.443222 1394.486252 1351.860578 1308.487973 1264.305004 1219.260536 1173.313688 1126.432163 1078.590906 1029.771044 979.959047 929.146080 877.327509 824.502513 770.673795 715.847369 660.032443 603.241469 545.490545 486.800651 427.200864 366.736269 305.486864 243.611697 181.448039 119.716902 59.871411 4.435414 -43.208040 -79.918863 -103.831568 -114.753173
</DataArray>
<DataArray type="Float64" Name="Velocity" NumberOfComponents="3" format="ascii">