<VTKFile type="PolyData">
<PolyData>
<Piece NumberOfPoints="2064" NumberOfVerts="2064" NumberOfLines="0" NumberOfStrips="0" NumberOfPolys="0">
<PointData>
<DataArray type="Float64" Name="Pressure" format="ascii">
 22605.468477 22805.936267 23088.965853 23459.563908 23990.361304 24722.495720 25554.082536 26198.938465 26271.348968 25526.656297 24052.696392 22173.401571 20216.153960 18425.711112 16876.670361 15456.216181 14012.393626 12466.840128 10870.477322 9356.598384 8034.368763 6941.638026 6065.248364 5371.620674 4823.874106 4388.592232 4037.903260 3749.679348 3506.987175 3297.289628 3111.576728 2943.333648 2787.356020 2638.943817 2493.821568 2348.674709 2202.088567 2054.537735 1907.607335 1763.264740 1623.398081 1489.569270 1362.910874 1244.115217 1133.477810 1030.968016 936.309115 849.058026 768.682616 694.643513 626.500091 564.075857 507.707490 458.470483 418.017137 387.834278 368.625465 360.074723 22853.790307 22974.857381 23130.494514 23398.610041 23972.920760 24861.363397 25912.191973 26812.767133 27036.931394 26214.776702 24530.749207 22452.111674 20277.144582 18395.775985 16978.025735 15735.721105 14420.616862 12887.144095 11182.987403 9545.558739 8144.597141 7011.322329 6113.347198 5406.482602 4849.546080 4407.409520 4051.446263 3759.099223 3513.119886 3300.736282 3112.789574 2942.633015 2785.011690 2635.724740 2491.195180 2347.024332 2201.237263 2054.326600 1907.949779 1764.078660 1624.588586 1491.033634 1364.548483 1245.835688 1135.205430 1032.642487 937.882766 850.488698 769.919091 695.595943 626.982388 563.715516 505.915212 454.748312 412.609793 381.633090 362.291577 353.785359 23129.913128 23089.307997 22896.861500 22880.994197 23728.842141 25103.957278 26688.057932 28371.097203 29180.687154 28204.714526 26029.827621 23700.557565 20687.681977 18308.000309 17297.875972 16444.752730 15416.082861 13903.318507 11843.440183 9847.043720 8282.182278 7087.590970 6161.710833 5439.878567 4873.550088 4424.806466 4063.875961 3767.641291 3518.507757 3303.473184 3113.202136 2940.664638 2779.648469 2628.180404 2486.537202 2345.014174 2200.246238 2054.005928 1908.150395 1764.706134 1625.555352 1492.250526 1365.928602 1247.299980 1136.686233 1034.083907 939.237190 851.707422 770.931227 696.260708 626.979439 562.300032 501.477595 445.348917 398.666639 366.415813 347.427964 339.322618 23315.682759 23055.852769 22274.591146 21380.388715 23612.075704 25935.026827 27860.680758 31191.198911 33205.884825 31867.501919 29459.344667 28615.963388 22229.424803 17567.224917 18643.342629 17875.998022 16992.399774 16106.705870 12708.914622 10042.088549 8392.316483 7153.622239 6205.760672 5471.325435 4896.676783 4441.881714 4076.329197 3776.487601 3524.505585 3307.190606 3114.967713 2940.146713 2774.735824 2612.250226 2485.999936 2343.676985 2199.514536 2053.745211 1908.309806 1765.237723 1626.397770 1493.331171 1367.171520 1248.633328 1138.047066 1035.419798 940.504437 852.864670 771.924361 696.986658 627.190747 561.312513 497.064415 428.359988 371.497301 340.437920 323.850465 316.929746 23399.014058 23098.855188 22090.407233 21074.433772 26996.654069 40992.809981 38151.604460 8451.025700 22166.847853 3472.085841 8348.369663 10348.665387 3694.148006 11645.867527 16373.572888 44044.524450 -204.185062 14642.079739 12559.267508 9523.169603 36359.478049 16707.783920 9892.837527 41537.700124 13059.872028 34997.703222 8737.467008 19097.580715 14804.138554 11105.843992 9549.416303 22578.772868 12766.389907 11533.505042 10914.690218 35307.337620 39931.129674 19228.273946 36507.795851 13814.587013 35427.745728 41016.934628 80545.367649 25264.078885 322.005571 303.790329 292.852326 287.980075 23416.769969 23448.795140 23435.823198 24078.647048 18533.340674 -23972.839806 7956.666443 11285.787537 10772.103832 11879.921631 9209.738410 9395.237072 6930.043259 13176.181103 9445.888765 10665.442525 12144.478922 7262.108999 9100.321649 7580.142021 10260.200008 17858.180566 6370.654676 10691.439750 11029.071076 9695.693674 11095.597496 11625.951113 9044.967954 15463.093540 10103.618080 8619.431567 25809.528111 12364.392223 13710.737990 21518.868245 10646.387808 13723.181878 25195.292101 16057.209539 11347.875320 15343.525963 14027.775703 21023.769140 268.060715 262.898798 257.461505 254.711412 23243.719406 23684.727097 24732.938345 27856.990597 8615.985102 10200.384308 9096.630183 11746.799903 10335.599178 10356.110864 4229.347258 10041.012480 10070.095241 10676.370562 8438.296937 7017.819404 8900.154690 8131.155725 10849.208537 2198.623328 11748.680149 10146.018580 7269.893168 6952.731969 10449.831766 7948.613784 10708.319282 10248.678942 8068.010037 8384.190225 10878.587741 37554.234785 913.045292 12830.842860 14651.753404 6350.920866 41375.244090 13719.415569 5864.224622 44137.868863 44481.968138 13703.760472 41394.226027 40914.899162 224.698858 223.010845 220.742324 219.450624 22642.270453 23231.118956 24147.527532 25682.278939 9552.734733 10753.841941 11918.697942 10226.314566 9728.168762 11020.573678 8490.821882 8629.640964 8327.352529 8068.199938 11001.283509 9693.441193 8449.079951 7826.611951 7911.533340 4848.092856 5519.594109 11562.122959 11189.874476 10397.853017 10061.666917 9036.695847 10384.267777 12391.661976 6098.786764 11930.205967 10821.737174 5081.260915 8941.161499 10085.371814 48416.441054 10134.303494 8339.059510 6992.168615 7579.926249 19479.411096 22020.061052 20695.642415 21745.354551 18460.811117 185.789513 185.245546 184.370149 183.849952 21484.356372 21950.864405 22377.407602 22458.327121 9497.549631 4539.869829 4525.180467 5639.750786 11660.973949 37648.090446 8178.542621 8639.909779 33362.060376 10411.052209 7995.138617 52472.468494 9912.707251 8006.183764 8186.465810 4334.424756 11347.189591 8897.498011 11160.360194 6359.291396 10283.469410 14291.169541 10920.321708 9089.789954 10298.696174 7432.297313 512.610300 10831.280302 6992.506274 10532.016288 10381.981834 6263.850163 4167.907257 8037.575049 13702.530458 13627.541933 8567.741424 26247.846940 11110.038452 22058.497698 149.366989 149.239776 148.945639 148.778234 19926.053201 20163.932118 20368.853059 20243.653584 6405.455373 9229.454857 7651.561298 6117.693861 7704.122247 2667.465767 13654.015758 9860.315878 10692.530572 7287.874369 13402.843415 6684.052250 8693.376473 8542.315968 44994.055073 5467.998617 1572.136780 2286.308210 10380.637629 6338.552732 6302.680278 8056.831917 6630.396648 5775.297358 11980.962111 9649.347011 2572.026361 10318.630610 9070.815021 8235.186910 8277.942715 10856.554048 6904.602633 8833.375746 39271.292647 7019.572556 12503.022681 8990.292632 11303.155281 26759.167114 114.636026 114.665039 114.607126 114.588741 18311.419712 18346.963638 18294.445612 18043.246564 8609.493070 8234.763034 5018.983114 6472.693104 9931.256052 10319.293964 7291.691227 3220.531418 7255.362197 6944.447712 7081.134365 5713.575227 4471.756415 8609.478834 6705.244113 5796.319986 6025.012903 7889.949431 8591.008164 7590.608233 22536.566782 2579.770960 8861.540716 12372.707094 11166.705735 8225.463023 13413.474502 20106.189266 10093.660836 7609.872118 6757.462815 9545.281320 8201.539078 9059.628250 11005.190642 8667.070063 9344.755534 33419.240938 8363.199345 8126.079548 81.217311 81.302380 81.337032 81.377319 16897.317535 16802.774661 16636.064162 16882.661630 6922.930297 7275.575332 6474.860036 3767.480995 7076.280370 5324.258338 8770.741457 5875.329213 7675.761778 7602.404862 3254.488853 -259.532261 3586.325020 4657.590859 410.358553 8325.409498 7420.830980 6076.750428 6898.327682 8049.131363 9142.794804 3731.011070 6991.156232 11135.396974 8097.153535 11500.674547 1754.987407 10801.791432 5868.094100 11378.151973 10064.219114 19801.164433 9305.096828 9070.960266 1104.205063 -4613.396996 10834.180157 8022.379285 2331.402808 7063.612284 48.899989 49.001731 49.069812 49.130591 15807.304847 15584.792827 15085.611731 14485.156282 7421.642204 7777.942888 8032.277286 7527.800348 6814.542053 5390.931504 5369.857289 6901.225397 6472.129606 3416.776362 3884.000466 4809.729586 7232.893068 6285.785189 8247.473648 9122.243876 6775.782657 4034.605296 8646.954561 7574.622980 7500.203947 5086.931356 10037.215166 4459.437413 8063.004740 7070.925769 26722.657201 2473.891103 8074.806749 12326.085512 7954.252411 22134.138606 -9914.216019 10689.531398 3760.096731 6722.170930 12756.539094 11324.533533 11223.524132 26035.048829 17.549035 17.652183 17.729756 17.795474 15118.728412 14809.383481 14133.790248 13430.467620 7101.348964 4314.703420 9166.306855 3446.330911 5641.442965 6855.510984 9153.090600 7449.817984 3008.004418 6377.051551 7914.273911 5913.934474 7190.113269 2256.032030 6098.533662 6195.209388 7836.020816 8024.389323 5487.606149 7250.302826 4492.306171 2960.143238 7074.904425 3366.039673 5473.507327 9539.853983 6763.113935 8885.340392 10416.891128 6286.164802 8992.537754 8036.088766 7597.975932 9196.183812 9485.950070 14069.631727 23229.506076 32048.292982 26857.334868 -24356.831730 -12.932624 -12.833628 -12.755932 -12.691299 14871.138402 14544.333232 13742.706432 12609.577885 9347.405204 6669.319359 7723.291190 9787.896066 9036.488126 9949.138936 8729.271588 9011.668595 5103.451579 9974.057616 10104.764735 9892.351107 7967.515878 5154.113299 7478.316378 7731.923886 5913.289853 11291.061800 6730.901581 5445.634385 7326.009346 6733.962802 4866.252694 5845.137119 8646.991640 5927.148534 7915.761041 8833.328550 5131.138700 6518.246025 7071.078318 6591.389921 6065.620828 6025.115252 5973.222944 8225.660943 10081.518804 11402.988163 8071.525665 41234.840821 -42.620719 -42.527560 -42.453142 -42.391698 15028.143353 14807.731218 14262.700066 13097.143200 7774.621870 4469.969077 8280.270849 6834.772050 10188.860870 8027.107463 5389.835028 8510.468629 7838.315565 5826.685634 11233.995108 6305.968011 7185.129465 9258.838466 6040.715725 8808.714416 12406.869221 7243.582789 10849.542839 4482.052784 7810.589354 4980.473162 4484.431783 7225.581612 6061.812912 5899.599033 5410.668137 8865.706217 5506.227111 6152.490117 7085.960897 8538.311828 1833.184193 2457.633039 6163.855553 8277.369714 3811.858542 5080.279578 13860.868619 8755.741345 -71.577549 -71.490423 -71.420294 -71.362583 15429.510119 15378.892415 15266.524370 14617.375519 6119.342373 10209.022058 9577.597319 5323.440900 161.670714 6994.171587 3081.953505 8333.469946 7629.074429 8485.675659 9850.514275 6616.232161 10317.063000 8509.688444 3913.435980 7552.368067 9196.389331 6987.845952 9347.035249 10837.794891 5269.756417 9975.349676 8119.342347 7339.097688 8731.362366 6043.945075 7330.242330 6427.515733 8794.103752 5504.456101 4426.434680 8899.418560 8395.007405 7102.882018 8733.489834 8815.616665 8166.892533 5882.884656 7626.407884 8743.813772 -99.856181 -99.774771 -99.709030 -99.655013 15848.819056 15937.492846 16167.472843 15869.731064 4748.670696 6870.075032 6280.324718 6955.927093 10947.061051 7160.665681 7274.485734 7520.456310 8689.322861 2744.312521 9009.913219 8582.381652 8393.569210 7522.306286 6118.075686 7694.292891 7812.289182 5770.485427 4974.926915 6065.599606 5287.951717 6671.004536 8051.192990 8646.275827 9234.473175 5161.208945 5590.156378 6772.039620 5213.309067 4641.129975 7618.483753 7072.118820 8355.102143 6205.483787 8207.940785 5758.913360 7107.773761 6393.896084 8344.846536 6625.031313 -127.502987 -127.426856 -127.365295 -127.314753 16088.419762 16168.563027 16545.014070 17217.021863 5392.651650 8681.065104 8826.584381 9344.890995 2507.849777 13783.080591 10084.886888 7899.888932 1013.301975 8840.952393 10593.464409 8778.779220 9428.356169 6684.942717 6895.377065 6152.076884 6282.285271 7306.594216 1515.522313 4025.294950 8710.980200 9417.520491 10135.570080 9715.405855 9726.838778 6522.029386 8172.296274 3704.412836 5776.239205 8166.929967 8752.506581 10661.371398 7164.950144 6687.514566 6972.284014 6023.289987 8681.223958 8499.063759 10623.510143 8369.394698 -154.559395 -154.488135 -154.430485 -154.383175 16076.407697 15946.652586 15605.518878 14936.088276 7038.423998 9104.762489 8228.758909 7007.234695 5762.724791 3295.903410 5700.030495 5743.180581 6135.063643 5789.024816 9024.596540 6592.059191 3196.437098 6188.547212 7172.413511 6160.987441 8945.779742 5649.942961 5273.497118 4235.144378 5685.509339 6217.067398 19793.750886 5193.163201 7260.472235 -14434.788302 5463.092352 9544.042977 9792.670809 3204.716217 9768.944770 5384.804007 6823.038220 9500.405031 10747.435823 10140.802532 10199.919297 987.310691 6546.249186 7306.842589 -181.063202 -180.996486 -180.942508 -180.898224 15895.364081 15579.025670 14784.571268 13295.901701 6711.684844 11091.998573 6320.625595 7695.706914 6880.943501 8721.953152 1010.577082 74820.800761 9280.274389 11543.082828 20416.421033 7088.426896 6914.538941 8993.532011 6918.579013 8540.680210 5584.160860 30047.412078 8621.510443 3559.096681 7940.624927 10931.702902 7350.945874 6077.320999 11365.087115 6552.949300 6015.576658 8534.807379 4914.974572 4874.664704 2769.332928 8794.251044 10082.303595 8879.395108 6360.868381 9493.575433 7421.939459 9801.131934 7255.557570 4127.496942 -207.049627 -206.987221 -206.936734 -206.895324 15635.329045 15238.133207 14294.791288 12740.880081 4383.946312 9558.775217 3995.458232 13438.849150 10061.724155 10013.017443 6093.395635 8926.056456 4778.884152 5113.585619 9902.934215 27930.466903 8414.440364 9768.840918 18065.134672 10559.595278 11058.341513 3350.546845 24810.198429 7452.341388 7244.140494 7123.610130 7099.977074 10714.617307 5428.835947 9819.912939 6973.255749 11829.663214 5537.581077 8430.887990 7628.914864 12654.465889 6441.967073 38094.455259 45957.250731 6797.552701 8036.397366 6140.596859 5304.487300 5027.702559 -232.552174 -232.493929 -232.446816 -232.408181 15322.802160 14914.741693 14057.800981 12699.516453 2204.910269 8515.949165 43068.833448 8323.938575 1091.153120 9162.834931 4283.554367 2026.736409 5777.515972 -1896.543118 11805.597189 19010.922782 8347.939151 5764.258552 4789.424657 3944.827726 5272.779057 10579.679296 4524.620823 4459.796474 5834.850099 5945.514709 1391.009819 47768.097691 7424.348423 3865.549482 13645.270154 7792.171700 9637.998184 4653.801426 4637.888353 7122.306409 7022.030788 11433.043232 7509.984774 8209.415373 9588.548109 5776.157058 2339.155143 3095.495872 -257.603335 -257.549179 -257.505381 -257.469473 14951.343857 14518.396663 13561.044572 12101.677117 4670.561157 8830.856227 10880.544418 6944.675441 31084.411198 8687.148389 8698.956292 10006.720807 8797.258540 74720.262316 10857.121839 11393.335417 16633.712238 3684.417724 4594.520708 29492.135842 5261.965199 9683.123758 1619.223009 5822.284022 9282.573682 4311.890670 3894.897312 8942.096142 736.441839 5338.569897 4595.508374 1775.462045 6820.383527 6820.537320 29260.233435 7366.471998 38955.250537 39829.309946 10779.698124 10868.409260 7941.471818 6321.963680 9690.198978 7926.108870 -282.235169 -282.185091 -282.144600 -282.111410 14533.031423 14087.433446 13184.648978 11707.907680 -306.479758 -306.433797 -306.396643 -306.366196 14078.940378 13580.234553 12517.422676 10734.524066 -330.369559 -330.327792 -330.294035 -330.266379 13631.773233 13091.824282 12031.572800 10783.564840 -353.937654 -353.900182 -353.869903 -353.845104 13245.953958 12640.066129 11310.797191 9443.081645 -377.217916 -377.184853 -377.158145 -377.136277 12994.056716 12396.110284 11094.956009 9063.883181 -400.245083 -400.216548 -400.193504 -400.174644 12885.926521 12365.909561 11446.641370 10344.184379 -423.054761 -423.030868 -423.011581 -422.995803 12866.847129 12343.052906 11331.684180 10247.325509 -445.683368 -445.664218 -445.648767 -445.636137 12938.421233 12431.038151 11347.330572 9912.509838 -468.168005 -468.153678 -468.142128 -468.132698 13087.693309 12703.597953 12044.400866 11490.338596 -490.546284 -490.536835 -490.529229 -490.523033 13212.232011 12925.075692 12428.888733 12057.909408 -512.856114 -512.851567 -512.847923 -512.844976 13235.530729 13026.446730 12722.182034 12594.116073 -535.135447 -535.135790 -535.136099 -535.136393 13128.311199 12959.090853 12744.038319 12672.915666 -557.422001 -557.427186 -557.431408 -557.434908 12893.725147 12704.426016 12279.249506 11373.898398 -579.752962 -579.762899 -579.770961 -579.777608 12582.031580 12406.709735 12167.546939 11938.800106 -602.164668 -602.179228 -602.191024 -602.200732 12235.358669 12019.618496 11538.347405 10978.998844 -624.692300 -624.711311 -624.726704 -624.739357 11933.688719 11726.116817 11340.816401 10932.003302 -647.369556 -647.392808 -647.411625 -647.427083 11727.707373 11537.545466 11192.574277 10769.237475 -670.228350 -670.255590 -670.277628 -670.295724 11635.865199 11471.745811 11234.010315 10951.211584 -693.298502 -693.329441 -693.354466 -693.375008 11645.609900 11477.216341 11179.024784 10761.805332 -716.607458 -716.641773 -716.669522 -716.692293 11751.515703 11573.009819 11240.305096 10764.890190 -740.180028 -740.217359 -740.247543 -740.272307 11955.506743 11779.722804 11457.826497 11107.155997 -764.038134 -764.078095 -764.110401 -764.136900 12243.319878 12083.651962 11765.747966 11495.463011 -788.200599 -788.242776 -788.276868 -788.304828 12558.260796 12426.340560 12072.585268 11414.485089 -812.682952 -812.726909 -812.762435 -812.791566 12805.140342 12735.743445 12612.701428 12327.602376 -837.497269 -837.542549 -837.579142 -837.609142 12893.061410 12825.831151 12800.445333 12957.884164 -862.652038 -862.698171 -862.735449 -862.766006 12832.709458 12671.866774 12253.384841 11591.163022 -888.152056 -888.198560 -888.236134 -888.266929 12724.898606 12539.046539 12080.332171 11260.424670 -913.998362 -914.044749 -914.082223 -914.112932 12606.978359 12450.908032 12117.731964 11625.209902 -940.188196 -940.233973 -940.270950 -940.301246 12455.666475 12313.280035 12020.067817 11747.893352 -966.714988 -966.759663 -966.795746 -966.825304 12264.367340 12120.944440 11746.194004 10976.159007 -993.568379 -993.611466 -993.646261 -993.674758 12041.258195 11930.082929 11752.660398 11470.084833 -1020.734275 -1020.775294 -1020.808413 -1020.835532 11774.285873 11639.172570 11372.773992 11155.668554 -1048.194917 -1048.233401 -1048.264467 -1048.289898 11493.077168 11308.658192 10844.037222 10057.714466 -1075.928993 -1075.964489 -1075.993136 -1076.016579 11249.064412 11074.974695 10633.222419 9759.107677 -1103.911762 -1103.943836 -1103.969713 -1103.990881 11037.165890 10933.427888 10768.553537 10447.373806 -1132.115208 -1132.143446 -1132.166219 -1132.184838 10795.531242 10723.418974 10660.965730 10813.394767 -1160.508216 -1160.532228 -1160.551580 -1160.567392 10498.666875 10409.803062 10198.720848 9925.755992 -1189.056760 -1189.076181 -1189.091819 -1189.104581 10176.942930 10106.979976 10005.355549 9896.052115 -1217.724117 -1217.738610 -1217.750262 -1217.759752 9853.703990 9796.007653 9767.973555 10044.140796 -1246.471090 -1246.480348 -1246.487765 -1246.493781 9558.984887 9488.033679 9211.150075 8634.995487 -1275.256245 -1275.259992 -1275.262952 -1275.265310 9337.696806 9364.338521 9505.406343 9654.722989 -1304.036161 -1304.034154 -1304.032459 -1304.030997 9138.534394 9227.893684 9437.883617 9772.186202 -1332.765683 -1332.757710 -1332.751189 -1332.745768 8902.568237 9025.726816 9400.237912 10169.028938 -1361.398183 -1361.384065 -1361.372572 -1361.363074 8610.887544 8676.681698 8706.145898 8649.211687 -1389.885827 -1389.865418 -1389.848832 -1389.835157 8341.442637 8416.181641 8458.154294 8163.377029 -1418.179843 -1418.153023 -1418.131241 -1418.113308 8145.269121 8283.131992 8523.597410 8629.449254 -1446.230795 -1446.197465 -1446.170387 -1446.148122 8015.177650 8172.652738 8575.854625 9252.268331 -1473.988863 -1473.948922 -1473.916426 -1473.889741 7972.058788 8080.810353 8210.112669 8249.009384 -1501.404154 -1501.357450 -1501.319315 -1501.288062 8059.758481 8221.944390 8568.583680 8806.538350 -1528.427071 -1528.373288 -1528.329020 -1528.292875 8185.187412 8427.507670 9229.927281 10853.645669 -1555.008839 -1554.947223 -1554.895648 -1554.853834 8166.698760 8271.265814 8657.450978 9333.634770 -1581.102411 -1581.031121 -1580.969408 -1580.920044 7991.246860 7845.243271 7479.371174 6958.545344 -1606.664259 -1606.578855 -1606.500193 -1606.438715 7822.608473 7577.977970 7135.557362 7351.829558 -1631.658286 -1631.548193 -1631.436266 -1631.351606 7782.466361 7583.813020 7035.341101 5994.114283 -1656.064562 -1655.905150 -1655.720972 -1655.586030 7873.224974 7898.936222 8199.687875 8458.424606 -1679.898677 -1679.634984 -1679.285281 -1679.032115 7955.310294 8026.422483 8304.493440 8762.351995 -1703.251110 -1702.773722 -1702.033028 -1701.483356 8006.129577 8049.815251 8072.909733 7788.951617 -1726.342336 -1725.521089 -1723.816001 -1722.471609 8077.135660 8178.593556 8363.261105 8426.996510 -1749.597071 -1748.738098 -1744.380931 -1740.780668 8137.825604 8275.596074 8485.126751 8793.584541 -1776.131082 -1777.508392 -1762.406829 -1753.190191 8129.293725 8195.997312 7975.132423 6985.850254 -1819.071223 -1811.866207 -1769.044254 -1752.935204 8068.944703 8118.943099 8121.108029 7806.580596 -1836.681771 -1801.026404 -1749.484223 -1733.872510 7968.782732 8002.176920 7996.988021 7818.362199 -1754.653084 -1729.846252 -1706.157055 -1696.462540 7838.026717 7862.569900 7934.854069 7908.870130 -1666.738063 -1659.826856 -1650.980739 -1645.886365 7703.587491 7682.779997 7659.198763 7874.464231 -1596.503968 -1593.705836 -1589.896380 -1587.502336 7624.632705 7556.044916 7268.591386 6658.991465 -1528.690195 -1527.457733 -1525.774124 -1524.662975 7651.535872 7647.598042 7668.023724 7670.217692 -1460.970321 -1460.350353 -1459.554508 -1459.007522 7732.935431 7788.803085 7978.426586 8344.183878 -1392.337296 -1391.961086 -1391.532264 -1391.223407 7792.828341 7845.643064 7956.515736 8036.675285 -1322.329079 -1322.047921 -1321.768384 -1321.556679 7813.939962 7851.600976 7984.690640 8363.557307 -1250.704958 -1250.458582 -1250.238170 -1250.064432 7808.494242 7798.457676 7639.682830 7126.308952 -1177.320473 -1177.085472 -1176.888345 -1176.728994 7814.163396 7851.460818 7962.036494 8110.486109 -1102.076126 -1101.845674 -1101.660641 -1101.508416 7805.785407 7874.508982 8069.155129 8442.342960 -1024.894818 -1024.671979 -1024.502588 -1024.360025 7758.929199 7812.893982 7939.547145 7927.770005 -945.708649 -945.507667 -945.374097 -945.254758 7689.755763 7708.013114 7741.082805 7840.132801 -864.443725 -864.300453 -864.254771 -864.193152 7639.075527 7631.031423 7585.883934 7555.583679 -780.989969 -780.990583 -781.157667 -781.235105 7640.377750 7630.225855 7581.825371 7404.702542 -695.129443 -695.484600 -696.161481 -696.565448 7700.419104 7713.615778 7794.484831 8101.382345 -606.355313 -607.601740 -609.492843 -610.639587 7792.610331 7788.459089 7697.993936 7403.399170 -513.379792 -517.000689 -521.750118 -524.485347 7896.881790 7885.579904 7756.140104 7374.495838 -412.613672 -423.350901 -434.525304 -440.217381 7959.922754 7916.513687 7658.733813 7280.263567 -292.195387 -329.458133 -351.620531 -361.546466 7932.486145 7839.216294 7411.666275 6744.599230 7109.689560 7133.658121 6117.982976 4563.220611 3523.778432 3575.114775 3916.670877 3911.372395 3945.370828 4119.685413 4115.269756 4055.949197 3974.090312 3880.041504 3779.393601 3675.331985 3569.678224 3463.432681 3357.094763 3250.864149 3144.769257 3038.747903 2932.696085 2826.495999 2720.031241 2613.194672 2505.892523 2398.046841 2289.597351 2180.503118 2070.744038 1960.321994 1849.261506 1737.609733 1625.435772 1512.829292 1399.898556 1286.767966 1173.575216 1060.468066 947.600597 835.128324 723.200578 611.946184 501.442594 391.643822 282.201285 171.980423 57.563778 -72.536757 -184.577939 -246.481329 -279.581867 -293.492288 7839.222837 7741.550285 7444.808983 6964.240189 6852.286613 6504.326730 5826.829740 5013.950783 4408.828285 4263.623884 4273.291613 4227.085692 4194.580882 4169.208640 4125.764436 4058.374235 3974.197568 3879.634655 3779.010248 3675.087113 3569.554453 3463.383371 3357.077926 3250.850541 3144.741513 3038.697325 2932.619516 2826.393503 2719.904637 2613.046725 2505.726571 2397.866654 2289.407083 2180.307270 2070.547390 1960.129501 1849.078159 1737.440413 1625.285107 1512.701537 1399.797518 1286.696995 1173.537316 1060.466247 947.638747 835.213298 723.347165 612.189019 501.865256 392.452341 283.923099 176.076796 68.724115 -35.168948 -124.520981 -187.331244 -224.672205 -240.776061 7743.973999 7652.439432 7434.567003 7099.853016 6719.441218 6258.447408 5740.044737 5228.513947 4825.300038 4572.461951 4429.578304 4337.507525 4268.026948 4206.672807 4140.435306 4063.253758 3975.442530 3879.706406 3778.810998 3674.902301 3569.442589 3463.330688 3357.056096 3250.835475 3144.717324 3038.655307 2932.555990 2826.307902 2719.798173 2612.921601 2505.585578 2397.712994 2289.244302 2180.139214 2070.378150 1959.963322 1848.919334 1737.293155 1625.153438 1512.589184 1399.707867 1286.633121 1173.502171 1060.463190 947.672841 835.294404 723.497290 612.459748 502.379157 393.501125 286.198204 181.187680 80.138064 -13.166465 -92.416682 -151.876898 -189.508232 -206.272720 7690.876106 7600.938980 7397.113442 7079.942140 6678.914694 6223.923948 5749.610099 5303.034027 4936.070549 4674.230369 4502.013250 4385.848780 4298.639943 4222.906109 4147.136206 4065.174489 3975.518676 3879.282294 3778.383916 3674.603870 3569.270252 3463.245095 3357.017284 3250.813432 3144.692778 3038.617450 2932.499777 2826.231868 2719.702923 2612.808898 2505.457858 2397.573136 2289.095525 2179.985025 2070.222286 1959.809675 1848.771852 1737.155731 1625.029799 1512.482802 1399.621896 1286.570396 1173.465322 1060.454984 947.697045 835.357837 723.614672 612.665060 502.751860 394.224594 287.679095 184.247400 86.085368 -3.170257 -78.751064 -136.357234 -173.568806 -190.379595
</DataArray>
<DataArray type="Float64" Name="Velocity" NumberOfComponents="3" format="ascii">