<VTKFile type="PolyData">
<PolyData>
<Piece NumberOfPoints="2064" NumberOfVerts="2064" NumberOfLines="0" NumberOfStrips="0" NumberOfPolys="0">
<PointData>
<DataArray type="Float64" Name="Pressure" format="ascii">
 12913.813833 12902.143486 12874.027161 12826.848571 12760.274610 12674.802195 12572.020788 12457.408097 12333.722157 12198.106191 12055.829487 11916.340335 11781.179914 11646.186847 11509.256902 11370.934212 11230.951515 11087.503605 10938.851403 10784.144534 10623.231268 10456.321838 10283.787811 10106.066227 9923.615938 9736.898387 9546.369404 9352.475701 9155.653169 8956.325731 8754.904286 8551.785650 8347.351507 8141.967459 7935.982247 7729.727161 7523.515692 7317.643395 7112.387974 6908.009542 6704.751070 6502.839001 6302.484107 6103.882767 5907.219112 5712.669227 5520.410117 5330.639959 5143.624686 4959.804787 4780.032906 4606.062390 4441.365453 4291.897482 4165.510700 4069.280915 4007.160443 3979.101597 12928.419718 12918.431008 12891.621604 12842.707583 12772.956064 12684.086884 12574.330243 12456.630259 12338.047810 12197.635399 12045.934201 11906.649066 11776.387315 11642.458197 11503.616828 11364.828144 11226.315390 11084.369354 10936.585465 10782.319019 10621.651930 10454.904995 10282.497224 10104.885474 9922.536881 9735.916393 9545.481330 9351.679001 9154.945468 8955.704609 8754.367174 8551.329782 8346.973914 8141.664995 7935.751618 7729.564975 7523.418496 7317.607719 7112.410356 6908.086545 6704.879257 6503.014848 6302.703763 6104.141446 5907.509654 5712.978661 5520.711549 5330.873516 5143.653516 4959.317012 4778.341475 4601.784455 4432.302076 4276.098867 4143.607427 4044.302947 3981.497089 3953.523000 12959.251121 12955.605265 12936.970727 12889.556359 12815.233461 12718.121237 12587.093087 12465.178720 12369.946275 12204.644710 12016.575241 11885.320969 11775.953166 11641.531839 11492.165513 11351.812610 11218.795007 11080.597213 10934.206739 10780.561030 10620.203774 10453.637713 10281.356152 10103.846718 9921.589353 9735.054383 9544.701391 9350.978616 9154.322449 8955.156814 8753.892371 8550.925588 8346.637782 8141.394224 7935.543381 7729.416351 7523.326507 7317.569363 7112.422625 6908.146424 6704.983681 6503.160555 6302.886920 6104.356743 5907.748128 5713.222524 5520.921879 5330.961013 5143.409022 4958.246829 4775.280742 4594.028820 4414.034966 4240.141692 4090.779415 3985.892205 3923.582248 3896.715126 13000.953597 13013.254325 13031.380463 13030.124255 12967.152178 12840.320160 12680.140374 12560.757718 12486.786639 12229.944503 11962.378410 11859.237424 11780.134168 11636.756243 11469.016700 11336.678156 11214.549671 11077.819523 10932.284595 10779.044452 10618.903280 10452.474213 10280.296450 10102.876265 9920.701175 9734.244605 9543.967422 9350.318376 9153.734023 8954.638275 8753.441689 8550.540590 8346.316141 8141.133467 7935.340914 7729.269491 7523.232513 7317.525466 7112.426052 6908.194405 6705.073423 6503.289155 6303.051115 6104.552311 5907.968437 5713.455069 5521.139998 5331.103943 5143.333130 4957.602367 4773.178339 4588.013283 4396.242872 4178.508486 3991.195054 3887.822606 3832.602046 3809.399662 13036.786838 13071.890098 13159.265993 13264.044092 9302.214588 13010.762097 8121.302384 9698.798012 9336.206079 10612.199398 6622.483169 10487.210654 9421.813943 6733.599615 8573.108708 9429.105653 11554.591899 7477.603257 9391.989672 6765.765266 9484.436793 9139.183512 11125.608228 8128.589536 8631.347604 9758.690787 7377.802926 9098.028758 7812.403803 8161.201538 12111.817069 7779.773391 8271.134165 11679.125693 10956.880084 9231.086521 7671.404050 9487.390745 9788.909699 7055.026892 6769.660832 10190.279235 8107.257320 10633.170332 3812.102165 3749.898385 3712.942222 3696.389379 13043.631176 13087.422598 13193.232499 13327.871329 8914.672841 8345.076323 6817.419637 7063.129162 8132.524571 7845.315689 7011.858289 10687.711437 13015.191011 6950.155121 9637.475681 12538.406153 8499.276709 10917.114446 7240.026598 8144.316663 10966.755990 9117.155686 10708.928262 11547.546159 7851.483881 9328.130343 8406.713475 8887.339006 7201.238491 8698.395092 7371.425748 8299.105687 8467.698198 10258.538245 9009.904585 13071.878980 8222.174749 12411.195146 10664.609962 8353.386098 9018.326905 8525.633361 8571.116039 9708.074400 3611.604785 3593.688796 3575.061276 3565.566423 13010.275407 13048.092466 13127.006095 13219.999854 10876.368387 6867.258607 7403.635735 6447.997241 6938.936983 7219.283725 11380.228293 7074.530110 7465.079539 8251.440319 6066.733527 8094.807979 7210.523594 11414.278170 6729.569474 8553.454554 6776.504206 8216.777039 7820.173578 8157.439818 8568.429134 10074.707147 7987.409254 11810.956709 7297.511281 8948.571989 7237.734417 6562.123172 11383.850673 12362.520063 8464.869317 9033.296166 7322.014932 9270.794050 10110.928876 9065.752186 11863.131832 8125.513539 9136.500017 9363.916075 3443.848867 3437.788025 3429.861751 3425.289315 12939.730140 12973.414496 13045.857397 13115.421346 9138.333341 6931.522745 6510.432945 8327.453964 8324.901141 6198.559377 8411.018003 7971.869368 7893.052180 11210.841717 7102.397582 11521.791822 6284.212631 8081.500203 6783.564702 12010.483802 11003.129196 6723.269364 6955.636289 12055.257967 8076.083500 6474.732790 10289.029045 8142.573930 13226.341728 6611.870651 6738.770021 11084.941276 9243.624065 12862.370599 9831.816135 8763.809580 12368.042688 8082.766003 13102.619954 9850.761924 9461.169551 7861.935340 12217.486653 8922.945723 3288.936333 3286.823059 3283.649338 3281.717284 12836.335208 12862.585224 12917.296699 12949.667969 5852.177296 8180.522364 8293.278689 9030.226031 8155.097498 9257.347905 11298.746689 6740.944882 11435.222947 6808.898012 6050.687449 9444.953040 6996.694965 5594.868852 7444.859443 13217.033009 10867.934037 9000.229608 6088.644572 9863.765384 8951.779268 7078.048226 6769.353778 11447.821470 7023.540697 7763.220694 10188.162745 7621.592782 8028.374196 8211.642147 8522.816450 8418.020259 11826.916069 11445.695807 9072.700800 8280.387778 6974.329027 6621.524585 7886.895393 10835.503430 3140.836482 3140.202666 3139.044856 3138.345853 12705.904867 12721.642589 12744.020737 12728.687068 8113.939246 10052.654406 8939.693076 12690.296240 8493.535247 10061.849517 7233.413231 7390.499310 10597.052261 11747.605328 9603.234939 12501.928117 6609.490743 7134.232236 5510.818496 19284.612203 5902.710829 10746.917203 6862.300722 12518.774440 6385.296267 10052.767807 10196.347805 10229.562595 6723.793474 6777.196006 7845.416909 6479.045599 6831.959532 10738.140938 12400.521917 11826.680731 7560.329439 8912.337073 9462.272982 8562.489129 6917.739857 9448.879304 6839.943247 8875.487775 2997.380913 2997.336131 2997.024459 2996.867599 12554.039642 12566.506938 12592.988322 12567.081623 12276.653670 5370.822432 13036.233074 13252.624702 6590.165863 7189.280062 7134.914855 8300.290977 7570.665802 14426.442636 8862.535373 12459.560442 8854.584604 6008.903625 11550.423791 20527.940977 11549.440921 6170.424187 6299.244648 10162.766031 8312.607481 12221.860767 5901.333811 9852.572136 8729.020848 10469.888004 6645.331004 11438.943142 7144.121628 8422.075514 11569.159734 10791.949088 5585.301175 7878.639556 6359.718470 6723.411401 11506.544950 9112.455289 11035.842006 10423.119262 2857.720864 2857.917264 2857.959952 2858.035127 12380.553349 12381.963237 12385.914528 12336.366530 10332.394721 12121.544765 13191.617064 7740.536227 14147.611811 14068.954303 6299.530272 13351.358550 11216.435366 6557.536654 17486.123376 7429.350158 8502.817715 6827.395198 12727.714131 13558.994382 7485.826704 11452.498125 12641.927384 11296.628515 6262.421408 15320.552092 17844.166163 7391.183853 5748.031303 10371.666210 9204.054879 11279.180078 9131.976500 10159.289643 8179.826528 9359.850819 7622.139100 9360.164208 9690.377873 7729.378648 6486.836774 7988.306415 10649.111023 8377.509946 2721.505461 2721.801716 2721.992612 2722.165794 12192.033981 12172.729447 12114.720989 12009.395438 12151.395581 10632.103001 7647.761577 14824.635875 14456.189835 13941.903698 16045.722508 14850.432854 14239.273537 7039.841773 6477.284835 11112.793406 7403.098545 13206.090769 10823.279659 6075.265891 12510.030272 11912.992399 6153.401974 6557.245252 8243.519087 9692.554224 6726.792132 13325.431245 8996.501334 10801.060999 9395.900750 7610.033827 7499.440011 5959.082376 11363.050694 9120.977656 7791.934462 7759.157525 13019.384449 10298.507668 6962.145226 6894.261040 6824.852654 9430.641332 2588.580106 2588.917573 2589.170156 2589.384267 12002.983114 11979.871500 11918.934262 11822.197594 14790.582236 12488.778982 6916.374325 7669.820761 12809.273812 10703.694464 6920.634394 13223.822885 15687.335784 12590.568548 7553.930166 13377.645723 9607.758973 18781.018137 13095.896292 9486.650933 9436.458405 6130.516273 11307.145856 12717.553873 11755.288393 3126.560685 6523.932342 7361.803124 12377.483645 6312.258106 12926.163629 6711.666759 6802.949925 8216.962899 8334.389408 9755.357867 9883.310717 6041.977584 8044.389155 12580.772173 6610.681756 9437.509722 8561.102892 6812.250731 2458.867897 2459.221845 2459.499640 2459.730422 11813.604849 11801.068142 11772.900858 11707.268512 7012.772655 11720.434269 9069.255190 6577.167663 5992.328710 7071.536553 6805.284220 11992.452783 12536.552475 5933.782831 6813.393375 9525.831386 10388.410567 12723.632725 11960.031962 12556.367553 13621.215002 7211.663157 12658.553702 10264.485952 12804.413388 13695.677364 12941.928143 6311.164186 6964.340838 15584.360927 12843.926915 6662.944693 11199.000414 10325.616080 8425.167968 11159.432754 6580.212738 10346.260877 6520.988273 7241.533833 6415.209809 8655.883176 7360.369962 7896.526442 2332.321554 2332.681320 2332.968795 2333.205844 11610.012046 11606.750727 11605.715248 11575.059010 7740.208850 17941.088096 5811.103738 8057.006133 13028.223969 11131.196414 7821.789451 5779.510167 7155.792040 6111.354945 12725.166902 13098.615814 14133.930072 6757.882178 8058.693265 6249.306340 11777.988396 6315.864078 7046.209897 14654.006530 6325.685174 16958.865105 14441.819018 12802.900826 8944.816097 12743.973861 9697.020541 6462.676759 10143.156693 11680.975397 9621.345843 11429.610672 10000.619893 13231.411772 12761.328955 7061.344829 11348.979863 7443.512128 -4567.923796 7209.474166 2208.903718 2209.264518 2209.554907 2209.793648 11381.347167 11375.613083 11365.834055 11323.595271 5565.459045 6555.286120 7060.445438 5858.061340 11774.155002 14074.088943 15445.944714 6138.908082 10967.532466 5954.094053 6746.464163 13238.916253 6263.568399 6704.769991 8271.738211 6673.248727 6810.753538 7076.897868 6473.273672 7200.808444 6819.116459 7353.074739 7988.319424 10726.947276 6054.438061 13096.339370 9423.579730 10878.069552 7105.571920 13129.629144 14262.107957 6025.906370 8300.963591 7463.460903 5814.470132 6014.594096 9217.091304 11116.293462 6456.944025 6579.860833 2088.578908 2088.938426 2089.228649 2089.466957 11130.656603 11114.153873 11077.034359 11015.780548 14577.700499 10715.038883 7500.607714 7053.857260 6268.847538 11244.922625 9825.915784 5885.068970 8176.777250 14847.747163 8893.256962 5701.725007 6414.207001 6012.596339 8340.925676 7766.392405 7057.606377 6790.179011 12563.498843 18229.649707 4305.974823 10608.654689 9461.481073 6909.693925 6250.691399 11102.004773 9707.919884 8682.866776 13227.639221 8114.317441 11184.590664 6359.033874 6387.137091 12191.793333 8013.982736 20656.138286 12470.694152 12027.326095 11319.549260 11526.256989 1971.310311 1971.667283 1971.955809 1972.192601 10871.549083 10844.416722 10769.453443 10672.704768 4366.509942 6951.347709 6590.933767 10494.538684 11498.154369 7868.837434 9230.770460 14595.157759 8440.627966 12867.331984 6591.648524 6321.966193 6707.077689 14450.875761 12013.862954 6165.825391 7161.722816 7102.867586 5733.348607 14861.139238 6247.681861 6686.368149 7015.333204 9759.064986 7732.174380 10919.390833 6228.489031 7572.711603 12165.753975 5880.824610 6418.030069 15342.133792 19468.884888 11658.857515 5984.742770 11915.596171 6723.513880 6098.079163 7033.639020 7078.497524 1857.058581 1857.412199 1857.698162 1857.932798 10617.631464 10598.388380 10556.437120 10470.455789 14366.594623 6997.055169 7045.527942 8157.832975 5793.733135 11874.228835 11858.655166 12472.038758 9347.748101 9576.227324 6396.829754 2710.166398 7673.643361 5273.788243 11264.957557 13087.967908 7042.296084 7967.613904 9949.464454 4761.880109 4169.097133 8204.203583 6487.764168 17319.160861 7365.645648 8245.209984 10310.407605 6981.482298 6738.473183 16299.377003 6939.144749 10063.451739 11626.738640 7392.667154 7411.287811 7257.230716 6823.226353 14719.473397 12757.913300 9094.891609 1745.781476 1746.131139 1746.413965 1746.646003 10369.861733 10356.893619 10344.032457 10289.256514 7261.252209 9481.236374 8536.082733 8271.272964 5889.577863 6864.748882 10596.677409 9387.887423 11060.082292 12591.948306 10685.232589 6688.970053 11126.220059 6515.014268 7288.450152 6719.434927 11569.558964 10363.058646 6357.744818 16319.597273 12616.444372 8789.641292 11477.598172 11178.250377 11043.737029 9140.842121 17806.177184 6019.682986 10467.361592 6138.629571 11662.433122 6863.674491 5830.118318 8078.562532 7639.428947 8600.942710 11856.170414 6103.330807 11598.413205 21277.476428 1637.433835 1637.779046 1638.058296 1638.287388 10132.143851 10105.558459 10043.672193 9959.897769 10607.928685 7340.300251 11498.427876 7507.841367 9333.842003 11244.056113 -13251.943114 8501.143290 7900.330973 6502.601728 7121.254221 8113.289120 5236.004082 6660.146447 8955.510885 8298.530579 6759.264072 8650.024256 8444.769296 5244.236816 -11827.926106 7892.011400 11486.077329 7348.137922 7695.576535 6940.569221 8771.315920 8408.482918 12815.082723 9010.092918 9870.873519 8780.917211 15787.247120 8832.207114 11062.680667 7529.252896 6407.675621 11421.732047 12656.717830 11816.520963 1531.967699 1532.308019 1532.583323 1532.809173 9924.626994 9888.990369 9795.568395 9676.224440 8432.697960 5776.601304 8007.790709 8133.808729 5446.359950 8197.245387 16119.547546 9839.466601 9144.393009 -9302.190284 7997.674820 10465.693556 9365.743586 20719.515831 7707.653120 5454.981700 8337.200507 6809.989596 7625.729109 13311.973218 14060.745711 -11820.728778 7851.308889 9037.743965 9064.922572 7261.727913 8478.043909 6796.186362 8149.484117 11262.103828 8763.298636 6858.007455 12332.342426 6631.223697 14384.262907 6589.180244 6076.194660 7664.313178 12088.442782 14689.382586 1429.332482 1429.667515 1429.938546 1430.160885 9763.917659 9733.608371 9648.534854 9530.710535 8293.855392 12395.261823 6468.450884 8156.903883 5912.758278 9296.600945 7083.728220 9061.952694 8196.565137 9610.290893 7622.679345 7217.285108 12130.381663 7484.578919 7389.787007 8076.953891 11943.059725 11243.792591 11734.033403 10704.038892 6970.052289 17165.170943 12333.830722 10190.168326 7059.044134 7772.207131 13007.393543 12181.998367 10607.412991 7545.353915 9062.423627 6227.035140 9702.921773 13277.536853 8981.178304 8071.982271 6276.726871 8046.408671 6490.547689 6386.705965 1329.475164 1329.804545 1330.071004 1330.289590 9651.553090 9646.713739 9635.338008 9575.267639 1232.340482 1232.663874 1232.925486 1233.140094 9572.497655 9587.880099 9607.545926 9571.449024 1137.871114 1138.188203 1138.444717 1138.655140 9510.208520 9557.885928 9671.224104 9698.104136 1046.007855 1046.318354 1046.569535 1046.775581 9440.640396 9497.250909 9628.524133 9669.927690 956.689786 956.993428 957.239061 957.440552 9356.592273 9399.847098 9470.371931 9476.961523 869.854425 870.150963 870.390848 870.587622 9264.860948 9311.323197 9406.364973 9466.261048 785.437869 785.727074 785.961026 786.152930 9160.538368 9202.816335 9300.826672 9403.102598 703.374914 703.656575 703.884422 704.071315 9044.480518 9070.699737 9134.397973 9224.450545 623.599172 623.873091 624.094673 624.276425 8929.010969 8933.440213 8929.978483 8935.699417 546.043161 546.309153 546.524320 546.700806 8828.912093 8825.601732 8824.353936 8814.624523 470.638379 470.896269 471.104879 471.275984 8750.340543 8722.917553 8641.498179 8534.721944 397.315368 397.564987 397.766905 397.932516 8709.718371 8671.794259 8570.783012 8453.078564 326.003744 326.244930 326.440023 326.600031 8712.772914 8688.710564 8639.611071 8573.677428 256.632218 256.864810 257.052947 257.207246 8744.624538 8729.710666 8675.139071 8587.407583 189.128588 189.352424 189.533473 189.681954 8786.964670 8799.151083 8821.597835 8801.440956 123.419705 123.634618 123.808444 123.950995 8808.324237 8847.636508 8966.290990 9049.448403 59.431420 59.637234 59.803695 59.940199 8779.616728 8800.333292 8837.119155 8838.934746 -2.911512 -2.714984 -2.556041 -2.425709 8700.786771 8712.251564 8746.885139 8729.442940 -63.685545 -63.498506 -63.347248 -63.223225 8568.138925 8564.255926 8572.264325 8522.904122 -122.968498 -122.791176 -122.647785 -122.530223 8386.976069 8352.604797 8294.119377 8220.725944 -180.839753 -180.672400 -180.537082 -180.426150 8180.906219 8117.774032 8031.142934 8031.280321 -237.380485 -237.223388 -237.096377 -236.992267 7981.816319 7895.314583 7761.656677 7782.579553 -292.673953 -292.527438 -292.408997 -292.311928 7815.310406 7712.797407 7518.479259 7477.762874 -346.805830 -346.670270 -346.560704 -346.470925 7689.186213 7596.896757 7430.912441 7368.179267 -399.864606 -399.740430 -399.640086 -399.557885 7588.362506 7507.152798 7361.244748 7277.457959 -451.942045 -451.829746 -451.739026 -451.664733 7498.143524 7429.042753 7322.488680 7267.740478 -503.133724 -503.033870 -502.953236 -502.887233 7410.190312 7345.816171 7218.891377 7118.483563 -553.539648 -553.452895 -553.382880 -553.325605 7327.466288 7291.570644 7246.940785 7192.604221 -603.264962 -603.192065 -603.133282 -603.085240 7244.634043 7222.860847 7220.385069 7239.177541 -652.420757 -652.362584 -652.315737 -652.277509 7170.754239 7140.083621 7067.855063 7017.112346 -701.124984 -701.082530 -701.048428 -701.020681 7124.857897 7103.685119 7062.245337 7000.726058 -749.503487 -749.477891 -749.457460 -749.440955 7100.790206 7081.946743 7063.663866 7029.921240 -797.691150 -797.683712 -797.678006 -797.673611 7089.249165 7057.942535 6981.739856 6880.885062 -845.833167 -845.845361 -845.855576 -845.864277 7087.283707 7062.093218 7022.623053 6937.393720 -894.086420 -894.119911 -894.147396 -894.170301 7085.627469 7065.173004 7039.981206 6973.319072 -942.620947 -942.677595 -942.723859 -942.762210 7081.641270 7047.412626 6956.630711 6842.245188 -991.621455 -991.703325 -991.770039 -991.825208 7085.664398 7065.242650 7024.662320 6932.289059 -1041.288826 -1041.398174 -1041.487164 -1041.560649 7091.113918 7087.675985 7107.371081 7061.479480 -1091.841485 -1091.980735 -1092.093958 -1092.187363 7090.039648 7064.782221 7009.537838 6949.486601 -1143.516491 -1143.688181 -1143.827680 -1143.942676 7096.118706 7067.000242 7002.707302 6923.248550 -1196.570082 -1196.776771 -1196.944597 -1197.082858 7108.887127 7093.356975 7062.696946 6949.358686 -1251.277341 -1251.521454 -1251.719538 -1251.882631 7111.301580 7086.539904 7049.737910 6966.364326 -1307.930457 -1308.214052 -1308.444002 -1308.633223 7109.164524 7061.651260 6955.812083 6834.350713 -1366.834888 -1367.159294 -1367.422087 -1367.638206 7122.563340 7060.259780 6910.529389 6758.539523 -1428.302449 -1428.667735 -1428.963251 -1429.206135 7165.361370 7120.859112 7037.910636 6927.177661 -1492.640042 -1493.044224 -1493.370537 -1493.638584 7228.214956 7194.321056 7138.296192 7053.927433 -1560.132321 -1560.570199 -1560.922483 -1561.211763 7305.163324 7269.584457 7184.108248 7083.301904 -1631.016197 -1631.477590 -1631.846388 -1632.149328 7395.755582 7372.626225 7305.608188 7195.114237 -1705.444608 -1705.911645 -1706.280010 -1706.583285 7485.176427 7480.781096 7479.626892 7417.486150 -1783.436784 -1783.879548 -1784.218128 -1784.499153 7556.915795 7546.203612 7531.636614 7465.460468 -1864.812400 -1865.181602 -1865.439790 -1865.660631 7620.098589 7592.288577 7537.075358 7436.029754 -1949.108156 -1949.322237 -1949.411725 -1949.508125 7695.904169 7664.136840 7603.690847 7455.001377 -2035.478466 -2035.399894 -2035.163450 -2035.024681 7795.889808 7736.538714 7569.352658 7327.087103 -2122.588550 -2121.978726 -2121.130556 -2120.562562 7934.229812 7892.389083 7819.690150 7631.211154 -2208.521599 -2206.951794 -2204.964621 -2203.625330 8094.904895 8045.985257 7967.072885 7787.555291 -2290.748925 -2287.413187 -2283.309949 -2280.609061 8283.685721 8198.015420 7987.702486 7737.204530 -2366.275255 -2359.549447 -2351.541140 -2346.540988 8529.124694 8454.157291 8276.504453 8067.690495 -2432.319145 -2418.418730 -2403.423406 -2394.978054 8824.537646 8801.616644 8801.366157 8744.060866 -2487.608264 -2456.990340 -2430.543223 -2418.643395 9137.910570 9131.532860 9151.808613 9156.804462 -2511.588456 -2451.295212 -2424.269799 -2411.839894 9469.066778 9466.935600 9454.684103 9435.041872 -2428.449313 -2402.953139 -2383.646342 -2373.914259 9828.335027 9859.522599 9948.663390 10010.641692 -2336.374008 -2326.369180 -2315.656295 -2309.423293 10205.776946 10261.862988 10384.506295 10501.289531 -2239.166600 -2234.296913 -2228.745766 -2225.181228 10591.459771 10680.017129 10856.893874 11027.713058 -2134.834951 -2132.341545 -2129.492393 -2127.561375 10970.668496 11105.704765 11388.062166 11637.153601 -2025.229983 -2023.965091 -2022.536351 -2021.537103 11317.743554 11490.456045 11849.260178 12170.853323 -1912.451199 -1911.872205 -1911.209367 -1910.739609 11611.881203 11799.183803 12173.457357 12552.098950 -1798.332825 -1798.155820 -1797.919227 -1797.756062 11842.994150 12033.264560 12429.892849 12897.258923 -1684.305785 -1684.370300 -1684.376989 -1684.394531 12014.712802 12179.276852 12477.519797 12899.906323 -1571.402168 -1571.611182 -1571.757633 -1571.881652 12157.817658 12309.218369 12589.147611 12979.718769 -1460.307434 -1460.599022 -1460.823632 -1461.008256 12310.616832 12443.781520 12671.084635 12941.353168 -1351.424260 -1351.757639 -1352.022572 -1352.238616 12515.514314 12634.117259 12804.115252 12915.543575 -1244.932791 -1245.281517 -1245.564405 -1245.793850 12794.239254 12937.556950 13178.794949 13247.204522 -1140.840968 -1141.190515 -1141.482286 -1141.716705 13113.607517 13281.336208 13567.090032 13595.978472 -1039.021899 -1039.371659 -1039.680626 -1039.923728 13414.939792 13589.481787 13931.393665 14053.005398 -939.234798 -939.607732 -939.974635 -940.251898 13651.096473 13789.905583 14092.523544 14335.381289 -841.120959 -841.590614 -842.127833 -842.511233 13811.233113 13854.127928 13917.518137 14080.918762 -744.151486 -744.913189 -745.900652 -746.565808 13916.987649 13887.741115 13854.977447 14002.830929 -647.461868 -649.028600 -651.142669 -652.488095 13967.538085 13851.311130 13683.201025 13836.789159 -549.375618 -553.185387 -558.020069 -560.863689 13985.594093 13795.510641 13501.386508 13708.473303 -445.906206 -456.599623 -467.633822 -473.306202 14023.273020 13824.982563 13480.654720 13571.203524 -324.870809 -361.536481 -383.229882 -392.975625 14104.634892 13977.929897 13802.775112 13830.953242 14392.183697 15398.696456 15723.327126 16155.345865 17475.853981 17053.320416 15144.755299 14293.662519 14822.782590 14396.310925 13561.203781 12718.807610 11959.967932 11393.881601 10392.496136 9189.344913 8682.103051 8005.014723 7629.822075 7221.351046 6763.893032 6364.618397 5986.239352 5610.897559 5239.839845 4873.838446 4514.883575 4165.523910 3828.303664 3505.390813 3198.392988 2908.312301 2635.586743 2380.175676 2141.660052 1919.339678 1712.318524 1519.574809 1340.015859 1172.519313 1015.962634 869.242540 731.284690 601.041321 477.468451 359.459214 245.668741 134.035063 20.290195 -107.805590 -217.862259 -278.474332 -310.754854 -324.328650 14194.829863 14126.099325 14057.327259 14107.367647 14347.939589 14770.175723 15123.902890 15442.260235 15769.891602 15688.303016 15160.174444 14701.432069 14515.985798 14088.555150 13428.698392 12696.738251 11965.075574 11203.229659 10338.135317 9484.421727 8769.270257 8168.494220 7663.273732 7211.621953 6782.871068 6377.576331 5990.454388 5612.806418 5241.047513 4875.106340 4516.553852 4167.703413 3830.965173 3508.439132 3201.707621 2911.773065 2639.087301 2383.629112 2144.999652 1922.517177 1715.301278 1522.342785 1342.558930 1174.835161 1018.055595 871.124009 732.976651 602.586920 478.959567 361.107800 248.001918 138.499077 31.521119 -70.838734 -158.350490 -219.613110 -255.924294 -271.583775 14260.322937 14220.501096 14184.118656 14208.036363 14333.664968 14547.753708 14788.094064 15021.802673 15192.642603 15182.505496 14979.746130 14696.066202 14364.890026 13906.431003 13308.373205 12624.516927 11893.507451 11121.958573 10319.723860 9539.645367 8838.252688 8227.433842 7697.931801 7226.750869 6793.193647 6385.399328 5994.879265 5615.044235 5242.399604 4876.319750 4518.007838 4169.545615 3833.205980 3511.015594 3204.525327 2914.731843 2642.095419 2386.609786 2147.892813 1925.278591 1717.900458 1524.760565 1344.785249 1176.867448 1019.898240 872.789909 734.493186 604.012016 480.421459 362.900881 250.813858 143.924675 43.001973 -49.012575 -126.554298 -184.444083 -220.975044 -237.246611 14287.640090 14256.978042 14230.803426 14245.789553 14330.504552 14482.798006 14672.827232 14861.660864 14995.009810 15009.965832 14885.401311 14645.270828 14300.064712 13833.374947 13249.640217 12579.939409 11853.672536 11089.494166 10311.152670 9557.922721 8867.287576 8255.301194 7717.683818 7238.688044 6800.821735 6390.452925 5997.921853 5616.752333 5243.501426 4877.347088 4519.264921 4171.162432 3835.197326 3513.329533 3207.078505 2917.432820 2644.858457 2389.361725 2150.575422 1927.848246 1720.326481 1527.023083 1346.873114 1178.776585 1021.630785 874.354809 735.909805 605.320340 481.707109 364.352129 252.839451 147.344844 49.126177 -39.004038 -112.988476 -169.072908 -205.194688 -221.512120
</DataArray>
<DataArray type="Float64" Name="Velocity" NumberOfComponents="3" format="ascii">