<VTKFile type="PolyData">
<PolyData>
<Piece NumberOfPoints="2064" NumberOfVerts="2064" NumberOfLines="0" NumberOfStrips="0" NumberOfPolys="0">
<PointData>
<DataArray type="Float64" Name="Pressure" format="ascii">
 8082.792710 8079.023799 8072.168421 8062.366035 8049.725279 8033.270412 8013.199616 7995.007658 7984.428753 7980.626764 7979.751438 7979.059222 7977.044955 7972.842040 7965.972646 7956.138830 7943.067106 7926.448436 7905.941285 7881.198339 7851.895535 7817.754845 7778.558627 7734.156187 7684.464183 7629.462703 7569.188648 7503.727751 7433.206249 7357.782850 7277.641448 7192.984775 7104.029080 7010.999780 6914.128002 6813.647889 6709.794533 6602.802406 6492.904183 6380.329858 6265.306083 6148.055707 6028.797533 5907.746425 5785.114130 5661.111724 5535.955840 5409.883792 5283.189455 5156.306561 5029.995136 4905.726347 4786.330727 4676.615671 4582.935168 4511.101174 4464.484821 4443.296372 8079.124633 8074.987738 8066.964812 8055.794256 8043.241070 8027.065552 8001.904020 7978.366596 7970.067751 7971.059502 7973.609418 7975.281932 7974.818534 7971.464520 7964.981369 7955.287357 7942.233633 7925.576118 7905.007257 7880.198141 7850.834882 7816.644876 7777.412969 7732.989072 7683.289254 7628.292303 7568.033459 7502.596683 7432.106481 7356.719983 7276.619702 7192.007210 7103.097807 7010.116158 6913.292802 6812.861436 6709.056811 6602.113143 6492.262907 6379.735925 6264.758677 6147.553774 6028.339595 5907.330114 5784.735058 5660.760795 5535.612890 5409.502637 5282.663312 5155.390912 5028.149868 4901.861183 4778.701157 4663.641837 4565.038313 4490.626573 4443.345676 4422.173137 8073.832631 8069.017598 8058.222131 8041.810432 8029.694376 8018.771772 7976.234878 7934.158623 7937.654877 7953.093511 7962.170892 7968.788623 7971.639224 7969.777774 7963.922941 7954.469318 7941.482108 7924.813514 7904.201257 7879.338978 7849.924527 7815.691414 7776.427388 7731.983315 7682.275021 7627.280335 7567.033154 7501.615953 7431.151760 7355.796330 7275.730966 7191.156210 7102.286515 7009.345865 6912.564270 6812.175014 6708.412538 6601.510819 6491.702140 6379.216153 6264.279140 6147.113414 6027.936764 5906.961865 5784.395449 5660.436837 5535.274897 5409.081284 5281.995089 5154.088759 5025.299252 4895.336647 4763.920628 4634.870410 4522.677108 4443.429965 4396.212951 4375.767691 8067.838780 8063.469809 8050.500013 8026.129511 8013.092825 8014.037845 7940.939936 7872.865159 7902.771152 7925.461914 7941.270037 7962.014837 7968.883195 7968.363379 7963.012164 7953.742658 7940.802607 7924.119383 7903.465869 7878.553865 7849.091190 7814.816858 7775.521420 7731.056805 7681.338774 7626.344391 7566.106393 7500.705920 7430.264643 7354.937044 7274.903280 7190.362916 7101.529590 7008.626631 6911.883529 6811.533168 6707.809683 6600.946815 6491.176665 6378.728727 6263.829121 6146.699932 6027.558537 5906.616729 5784.079227 5660.140626 5534.978583 5408.737899 5281.492564 5153.153248 5023.233757 4890.217858 4749.602258 4586.279748 4443.520103 4364.436656 4322.231060 4304.443212 8061.073251 8061.019723 8058.321842 8046.728952 7372.359262 7812.841003 7289.066638 7095.712479 7078.815277 7848.971563 10837.559995 7523.928316 7102.698184 10303.697159 7556.257034 7040.617990 7496.932346 8391.609610 7137.187545 11071.210322 7104.812276 7337.307140 7629.067180 7687.264257 7266.953607 7080.702839 9040.597235 6857.394777 8479.556586 7855.263408 7586.113362 5392.207125 7036.006274 7377.410971 7371.483710 7188.151668 9404.081365 7033.022199 7179.047185 10307.041617 7417.440329 7208.069150 5470.249442 7255.464520 4301.289526 4253.052694 4224.555637 4211.752806 8049.583244 8057.348996 8079.073466 8093.747171 7576.257706 7286.883258 10860.429557 10170.333637 8329.850218 7747.851205 10872.898691 7342.041479 7988.644598 10212.965195 7019.159003 7769.149584 7544.602324 6797.218489 10000.406304 6434.689628 7325.301299 7399.614299 7664.609388 7562.888748 8470.706797 7145.248082 8271.206429 7399.445359 10237.264567 7038.324797 11318.129118 7857.442158 6789.645323 7235.481861 6948.393360 8037.980140 7892.875259 7684.711031 7099.127405 7820.460627 7094.958170 7907.737387 7116.934802 7100.861391 4139.638647 4125.588416 4111.086236 4103.653303 8026.327556 8037.298589 8068.656252 8088.169021 7145.700079 10832.283610 10591.553560 9917.384187 9298.849555 10135.869268 7482.573269 10313.368550 9116.380535 6140.756186 10690.640447 8827.286526 9299.785869 7599.233732 11072.746595 3349.508294 10322.410965 6143.712669 7751.626178 8617.934732 7810.802597 7133.680318 7260.678015 7873.546304 10094.870012 7407.530556 9913.026153 9840.730185 7498.690499 7517.557465 7965.009199 7239.634021 10847.562005 7391.582664 7832.076191 7071.735891 7667.861982 7451.483859 7323.169715 7187.020252 4001.382681 3996.491999 3990.214751 3986.555047 7988.543380 7993.148014 8009.471411 8022.757005 7454.792639 10495.708755 10624.654870 6918.321333 7694.435812 10520.173904 7205.998433 7369.850533 7956.145644 7025.671524 10361.471090 7520.625927 10843.622296 5116.612633 12060.417042 7604.711150 7322.395064 10555.629552 10831.615093 7424.058543 6300.676076 11388.169683 7308.602945 8252.253403 8008.529377 11081.972280 11347.180381 6817.516783 7287.782222 7827.052021 7029.212429 7698.156963 7760.273925 6561.668344 7909.673989 7756.440736 7357.971525 8253.297100 7784.913330 6629.540357 3871.319234 3869.481155 3866.867558 3865.241813 7942.872312 7934.670809 7911.341899 7891.177387 7646.964138 9099.002666 7551.453642 6927.927293 6698.411336 6992.060010 6834.194640 10321.829748 7417.579245 11326.484956 9963.796624 7472.234254 10183.814358 8805.317790 8816.959406 8020.088753 6761.892078 8145.608385 10909.524025 6684.267072 7059.898070 9908.998337 10373.918629 7521.396871 9585.496160 9447.737314 7100.573962 7907.155215 7877.245978 7720.828379 7462.521683 4627.142352 6486.041596 7233.694232 7549.984662 6182.314379 11178.730413 6077.716561 13005.001588 7473.298383 3744.889120 3744.201004 3743.147374 3742.476632 7901.378696 7887.585986 7854.956839 7822.262331 8601.580166 6884.371776 10229.228256 11156.305448 10326.752108 8812.065399 10234.019863 8086.038469 7287.124490 7369.660152 6846.313410 9996.300395 10512.063751 10454.138060 6218.607949 11777.938703 6562.493491 7218.093864 10933.548936 7558.069842 10594.165589 7032.039676 7483.446730 7362.013413 9958.384133 10804.715994 9852.048557 10650.095081 10328.051941 7253.353992 7440.683498 7650.706316 11022.511269 6970.760098 7172.275632 6525.103259 10276.658567 8141.925664 10301.064680 7884.036476 3620.508618 3620.284234 3619.890345 3619.643533 7870.588820 7856.132958 7821.019313 7784.743250 10701.601324 5526.943768 10779.455425 10081.011125 9632.747059 9730.478977 9715.326867 9981.207348 8725.066790 12712.151299 10074.777939 9653.322990 8295.023798 9260.549420 10295.096051 12103.462700 10907.988374 8575.998067 9034.227563 8457.368811 7395.945987 12138.850328 6219.071980 7264.930033 7320.977623 7413.338948 10913.324023 7714.245818 10219.452690 6676.186263 7689.723227 7544.993158 7764.314439 4440.180039 10778.983181 10529.856868 7236.544246 7747.154454 7544.325701 7180.547974 3497.607753 3497.578915 3497.465948 3497.404316 7851.066901 7841.326385 7813.551527 7790.254590 8429.888180 9543.588297 9903.476507 10023.938835 10620.282704 11025.051247 7371.375122 10220.423426 8674.197744 8740.283453 11492.340708 7177.571797 8195.764343 8793.119426 9844.400781 9904.619119 9064.975744 9707.672041 10165.087607 10360.160063 9356.510087 11853.210028 12224.918892 9573.310410 9390.787846 7278.840736 8082.381809 7522.812532 7727.955827 6832.956091 6932.052313 7294.891208 9664.028976 6974.053940 6876.983650 4372.968220 10250.401201 7260.236466 7270.993111 7127.107234 3375.998043 3376.055670 3376.064653 3376.084866 7836.673678 7841.444568 7856.704708 7874.236859 8919.679852 10074.407026 9995.811646 9893.049254 11086.050497 11359.710214 10890.014433 11250.797755 10213.640556 7867.718776 6867.815329 10564.828324 8664.404856 9330.327499 9754.581370 7605.589141 10096.017902 8951.076250 11442.420266 9447.248165 9680.319797 10191.974010 9159.510857 10676.709360 8905.258364 7442.585378 7374.127106 9632.125890 9635.793196 10249.306414 7351.121213 7727.715141 9648.680599 9566.328520 7682.043553 6659.525850 9470.141669 10831.961018 9950.795144 7004.798467 3255.640474 3255.739203 3255.803312 3255.861277 7813.439658 7828.665232 7873.123548 7904.137680 11987.354186 10018.009196 10025.308949 8669.151396 10627.200356 12117.614851 10388.159839 10815.160002 9988.111527 9268.687629 9995.242531 8899.406453 9359.372064 11978.479533 10528.233102 10298.160187 10082.631263 9903.024236 9309.103757 9577.685439 7081.077224 789.922854 8330.117909 10555.203117 9175.335399 9008.187295 9450.209310 10557.495758 10801.757131 10926.571252 8779.506184 10491.307638 10323.278618 9741.846180 7687.686526 7802.721058 8204.430106 6980.898377 7891.108638 10259.946081 3136.554264 3136.674878 3136.765867 3136.842782 7772.083549 7781.185383 7802.701010 7803.921601 10311.167535 10414.308023 9618.282803 5539.919453 8982.757537 9321.854504 10819.136054 9784.085875 10751.595409 8866.813440 9886.604132 8679.513827 9848.968418 10659.815882 9108.933073 10738.201552 11115.793306 9737.348578 9203.088402 8608.075047 10582.572627 10474.699108 10836.655187 8769.021962 10876.234410 11520.245838 10585.276651 11450.618915 11828.618640 6745.617265 7977.203963 11501.087322 7758.810791 6100.602279 10189.183476 10536.709478 10950.739367 7676.290851 9393.956006 6285.868261 3018.779882 3018.914018 3019.019789 3019.107539 7717.824707 7716.492485 7711.724696 7688.262941 10011.210553 11287.139028 8562.820916 7441.148143 7804.848161 6946.527566 5476.244447 5458.793510 7924.972055 10509.604033 7883.322190 10582.004089 13443.505214 9132.192195 10030.115027 8933.775412 9039.800201 10945.498587 10405.003851 10159.877922 9984.463144 11856.535294 10692.240937 12625.547380 7807.772421 10514.419643 11899.212145 10329.611766 10144.834012 10706.495329 10581.014670 9024.437812 6117.088955 8525.186242 10211.094716 8825.084041 10620.193213 6922.612489 -1921.622986 10251.835945 2902.363893 2902.507728 2902.622954 2902.717920 7660.449263 7651.267657 7622.429545 7576.927624 6573.391499 10203.047571 11095.815209 8465.297020 12247.405585 9281.698977 12129.827939 6187.600245 7077.392710 10303.050489 7698.038987 10506.223940 9284.076900 10402.502344 6617.687600 8933.056937 10299.113074 7446.403329 9126.560166 10972.746661 11163.152634 10103.523926 9167.544954 8597.549597 10586.041758 10553.211322 9981.552510 9144.036640 9876.728964 12231.603665 11122.756633 8027.603974 9069.730070 9993.033549 8621.372589 8880.426507 9133.387537 8832.568049 10884.409670 11058.378984 2787.352806 2787.504429 2787.626628 2787.727088 7605.703359 7600.353790 7589.190387 7557.746411 11033.619435 4908.479527 8313.456079 11185.257590 7444.038978 9953.118872 8849.975256 11290.168189 7546.494653 10824.951579 7161.892353 8859.321067 10543.479395 8449.892311 6816.838908 5882.148096 11129.023436 8029.299988 10332.134532 12257.165601 8040.935727 10626.727572 7094.185918 10447.406894 10409.208288 7506.833977 9906.761164 6633.962890 10598.729775 7572.824233 10340.027653 10468.287475 7073.756910 9606.898422 7483.407582 12115.999101 10192.801093 8776.966365 8329.577280 8480.240766 2673.790644 2673.948957 2674.076851 2674.181888 7550.123079 7544.049953 7535.372846 7523.810444 8502.715014 9157.914164 9174.543841 6139.889961 9594.696463 7997.049509 7227.328764 11765.772142 9025.219847 7868.610479 10777.043569 10665.528428 10012.517768 11180.665961 12028.903716 9740.507339 10396.535389 11080.530819 -4935.931177 11706.640237 10798.974562 9549.118190 11068.771017 7261.466027 7394.483243 7353.395946 8549.669947 6577.544296 9846.460559 9341.205242 10544.642677 9173.779799 10683.594776 9457.656979 5664.624385 10597.716955 10074.262614 9807.327369 9670.053604 10207.887757 2561.718069 2561.882335 2562.015163 2562.124208 7493.210708 7480.115629 7447.500927 7419.518230 11086.588680 10105.604270 9757.941693 7632.601179 8906.330681 7672.754931 11720.717785 9648.074210 6831.307658 7036.514103 9808.929392 7665.286339 7481.443073 6984.958802 10374.051524 10364.857173 10036.687592 8671.378408 10628.947268 8558.864487 9394.704834 7726.108931 8591.052915 10718.365687 9391.295398 5813.221509 9578.488673 9221.789837 10189.575615 12180.529283 10528.009414 7367.600857 7614.149694 10223.489300 9915.650418 9859.038165 9676.203441 12528.395720 10111.198482 10137.872398 2451.172174 2451.341820 2451.479053 2451.591693 7438.761070 7422.313334 7386.013468 7350.854218 11113.414958 9048.149382 9728.941065 7799.921026 9345.365697 10661.411971 10036.898604 7238.413072 7491.441265 7811.421265 7134.157673 8787.554453 12526.858504 11211.849712 10707.079230 7667.302612 7677.467343 7122.007310 10826.822770 10494.444533 9516.807642 7728.086559 12328.871797 9954.348092 7462.914793 7394.034815 10101.721834 7055.573586 7237.975875 5260.694235 7757.263617 9706.542266 11139.610191 8050.726138 -3965.932280 8738.631945 10409.118688 8957.497516 11574.624564 10552.884325 2342.186530 2342.361074 2342.502291 2342.618192 7388.380617 7365.017946 7314.124884 7267.187032 7855.575609 9977.598255 8912.123577 9545.741787 7354.581221 7362.629249 9987.369500 7886.014992 7768.072017 10858.116022 9331.802832 6972.741494 8011.228497 7023.923648 7345.795330 5966.916586 10306.874494 10069.426195 6763.973359 15495.888314 10704.973962 9861.536477 7530.561817 9886.812162 9803.735805 10235.148375 7413.102747 8096.188550 7617.328153 6928.695411 7183.075023 7082.626527 10724.499437 7778.160491 7080.871055 9042.889985 10700.494888 9881.328550 7805.776032 12410.153874 2234.791364 2234.970376 2235.115218 2235.234090 7347.520595 7318.188541 7246.402041 7167.961507 6017.637941 11002.171460 8187.292445 8924.862824 -3969.778114 7289.327608 10517.785958 6870.433297 9448.801608 10409.636452 6828.851373 7425.730503 7337.653268 11007.738861 6532.682766 13861.399021 6175.458984 10286.796127 7039.671620 10464.915569 10663.022172 3448.163403 6693.244217 6862.468633 7100.787422 10700.663346 6309.195676 11182.903556 6452.476733 7642.484713 7255.370953 7884.087472 7657.849067 10437.794818 12416.693555 7715.108778 9063.167707 8451.736583 7784.469140 11311.649723 2129.013776 2129.196867 2129.345014 2129.466597 7320.427660 7297.196219 7250.440313 7184.587385 7791.627032 7744.512373 10801.160773 5681.372641 5710.956598 7501.620592 9632.116820 7791.854053 6505.662291 7155.817363 9787.715129 10207.292690 7261.405586 7862.837426 9693.294619 6407.880074 7830.582791 7326.746597 7587.243249 11964.034342 10322.240417 11476.194349 9597.053510 4557.124093 8232.092570 5085.808780 7965.121586 7342.052637 7213.849303 9721.851341 6909.451699 9600.201627 7053.609900 8040.315705 7788.558014 6632.344374 7495.557714 8732.015628 9255.949765 10387.753204 2024.877978 2025.064795 2025.215959 2025.340017 7301.985079 7281.317043 7237.496654 7174.752190 1922.405545 1922.595766 1922.749687 1922.876007 7288.377006 7273.064636 7240.432969 7189.701635 1821.615663 1821.808997 1821.965440 1822.093829 7274.763811 7268.710709 7271.355329 7248.135529 1722.525377 1722.721566 1722.880321 1723.010608 7256.632756 7240.470091 7213.875217 7170.928871 1625.149843 1625.348658 1625.509540 1625.641573 7245.568886 7210.786011 7110.285643 6996.064549 1529.502569 1529.703812 1529.866661 1530.000308 7256.083715 7235.140811 7196.580976 7139.694572 1435.595659 1435.799160 1435.963839 1436.098989 7277.528793 7263.639554 7250.543527 7228.496972 1343.440046 1343.645667 1343.812064 1343.948625 7302.557544 7278.339919 7233.523006 7192.908658 1253.045731 1253.253361 1253.421386 1253.559285 7339.181163 7302.147504 7220.114212 7147.015356 1164.422003 1164.631559 1164.801146 1164.940327 7396.650741 7358.283913 7261.557209 7150.946783 1077.577661 1077.789088 1077.960192 1078.100620 7471.136462 7444.347632 7389.072507 7309.564095 992.521229 992.734499 992.907097 993.048753 7547.386232 7526.794527 7498.629741 7455.124199 909.261163 909.476272 909.650362 909.793244 7615.915027 7596.233366 7565.750802 7501.446749 827.806047 828.023018 828.198617 828.342740 7675.237342 7650.407295 7605.789725 7510.795492 748.164785 748.383663 748.560808 748.706203 7732.346650 7692.620608 7613.735148 7494.194192 670.346783 670.567636 670.746383 670.893095 7804.376910 7742.979884 7598.263664 7441.423572 594.362121 594.585038 594.765459 594.913547 7910.707177 7850.728042 7731.008940 7603.940935 520.221713 520.446805 520.628989 520.778526 8050.796260 7987.071827 7863.273434 7746.374908 447.937465 448.164860 448.348910 448.499981 8219.248056 8150.252990 8009.034106 7861.059210 377.522411 377.752254 377.938289 378.090992 8404.109037 8329.027715 8174.572219 7980.309808 308.990849 309.223303 309.411454 309.565896 8587.535914 8495.863560 8285.844478 8008.885453 242.358458 242.593700 242.784109 242.940407 8753.990880 8663.517213 8476.696464 8181.160326 177.642410 177.880630 178.073451 178.231731 8876.301826 8775.627346 8565.428420 8226.798619 114.861467 115.102865 115.298261 115.458658 8936.079303 8822.189482 8601.303649 8223.576788 54.036063 54.280852 54.478995 54.641648 8925.425083 8775.072234 8472.970249 8007.959711 -4.811611 -4.563212 -4.362144 -4.197089 8861.099738 8666.795830 8270.860907 7722.612245 -61.657553 -61.405316 -61.201140 -61.033532 8775.440399 8539.480278 8055.862955 7446.134422 -116.475893 -116.219584 -116.012111 -115.841795 8703.199765 8445.911467 7925.380740 7305.407066 -169.238848 -168.978230 -168.767268 -168.594086 8663.110461 8418.350861 7949.734729 7400.603784 -219.916694 -219.651527 -219.436882 -219.260676 8649.740014 8424.406384 8016.778057 7545.176132 -268.477745 -268.207787 -267.989264 -267.809872 8660.901095 8434.792142 8005.154281 7525.949037 -314.888335 -314.613344 -314.390747 -314.208010 8718.074081 8499.653008 8072.685144 7612.627339 -359.112819 -358.832555 -358.605688 -358.419445 8838.368150 8656.072544 8325.488445 7939.098977 -401.113576 -400.827799 -400.596469 -400.406563 9016.064253 8855.369113 8553.804068 8173.878636 -440.851018 -440.559491 -440.323507 -440.129780 9251.132085 9104.941400 8803.536037 8419.298972 -478.283608 -477.986099 -477.745274 -477.547572 9542.288886 9434.616960 9213.113355 8869.151900 -513.367884 -513.064165 -512.818313 -512.616485 9858.595117 9807.088742 9711.120987 9444.873439 -546.058482 -545.748329 -545.497271 -545.291169 10143.864308 10148.393325 10209.802282 10073.124222 -576.308168 -575.991364 -575.734923 -575.524403 10343.224883 10362.923653 10465.566795 10451.295635 -604.067866 -603.744200 -603.482205 -603.267125 10444.822996 10431.755143 10405.785165 10335.792335 -629.286694 -628.955958 -628.688242 -628.468466 10484.588528 10458.820295 10415.079387 10343.991433 -651.911986 -651.573981 -651.300380 -651.075775 10489.827554 10471.048194 10462.552948 10401.689469 -671.889328 -671.543857 -671.264216 -671.034651 10467.579509 10435.836471 10360.174154 10216.271956 -689.162578 -688.809452 -688.523615 -688.288965 10432.162502 10390.014996 10289.351530 10141.213119 -703.673887 -703.312919 -703.020736 -702.780877 10392.535341 10352.837014 10301.425663 10267.130991 -715.363712 -714.994721 -714.696044 -714.450856 10347.984315 10285.875244 10150.790639 10111.882743 -724.170825 -723.793630 -723.488314 -723.237677 10314.296667 10258.339946 10144.736150 10129.464034 -730.032307 -729.646732 -729.334634 -729.078429 10289.516577 10254.621524 10206.641876 10238.891906 -732.883543 -732.489411 -732.170388 -731.908499 10257.569334 10239.994469 10229.427423 10268.016767 -732.658201 -732.255335 -731.929243 -731.661553 10205.928945 10186.330836 10143.630196 10142.038797 -729.288199 -728.876421 -728.543116 -728.269505 10137.432422 10130.224602 10150.261142 10201.557213 -722.703668 -722.282797 -721.942133 -721.662481 10049.769017 10026.579652 9997.710208 10030.898481 -712.832901 -712.402754 -712.054580 -711.768765 9963.542662 9913.880166 9787.988386 9730.717811 -699.602294 -699.162680 -698.806844 -698.514739 9911.420191 9873.522139 9787.624348 9740.448807 -682.936274 -682.486999 -682.123343 -681.824819 9893.928207 9893.820421 9930.182961 9974.918025 -662.757226 -662.298088 -661.926450 -661.621373 9885.829185 9888.657861 9905.442105 9952.660335 -638.985408 -638.516199 -638.136410 -637.824642 9884.545854 9886.211060 9888.834620 9922.891590 -611.538861 -611.059367 -610.671253 -610.352652 9896.916437 9898.779156 9910.847403 9962.232102 -580.333326 -579.843326 -579.446707 -579.121125 9930.276824 9930.006121 9931.845236 9979.340811 -545.282151 -544.781416 -544.376110 -544.043397 9992.652425 9991.707049 9983.564492 10018.767571 -506.296209 -505.784508 -505.370327 -505.030329 10086.480113 10109.666933 10191.568018 10291.448650 -463.283822 -462.760921 -462.337675 -461.990237 10195.796222 10210.823919 10219.313371 10232.114177 -416.150703 -415.616366 -415.183868 -414.828835 10323.360558 10350.340935 10382.833228 10373.857554 -364.799903 -364.253901 -363.811967 -363.449188 10459.159800 10516.059474 10639.162380 10695.153187 -309.131792 -308.573905 -308.122366 -307.751700 10574.048498 10651.873020 10832.465296 10923.096661 -249.044055 -248.474089 -248.012800 -247.634126 10646.867429 10700.251215 10804.894959 10843.617007 -184.431716 -183.849518 -183.378396 -182.991632 10695.805610 10709.490995 10728.835226 10725.122167 -115.187169 -114.592683 -114.111768 -113.716919 10757.587774 10736.308784 10661.044721 10578.848455 -41.200204 -40.593572 -40.103186 -39.700450 10860.689317 10833.425061 10747.437715 10635.682251 37.642073 38.260258 38.759144 39.169135 11003.235673 10997.451415 10993.338349 10933.478119 121.455593 122.083709 122.588605 123.004201 11157.141490 11157.005986 11182.014611 11161.005417 210.360443 210.994451 211.499278 211.916435 11308.149852 11279.484379 11209.810322 11123.287273 304.483879 305.114008 305.604155 306.013154 11473.189222 11427.619685 11306.223880 11161.149501 403.967955 404.570750 405.011259 405.388911 11662.456288 11629.348619 11548.076164 11439.062190 508.988402 509.507476 509.814796 510.106030 11858.938319 11852.026481 11852.675369 11834.428596 619.800955 620.099693 620.074170 620.149188 12034.734423 12039.397260 12075.465825 12108.272259 736.855954 736.597532 735.762344 735.320291 12181.357525 12176.510271 12171.856407 12150.091159 861.090174 859.412390 856.632714 855.002316 12318.072942 12293.574284 12197.107450 12050.611866 994.721777 989.237503 981.856785 977.667235 12473.759129 12477.402131 12476.055634 12439.259543 1143.701367 1126.786030 1109.016427 1100.029928 12639.024192 12692.596066 12824.482394 12996.748929 1327.411148 1267.813503 1232.111366 1216.184704 12776.633930 12871.329422 13121.452748 13476.223900 13579.258468 13415.714447 13080.038448 12562.173228 12281.522701 12031.577175 11758.747645 11635.671106 11539.764871 11473.539145 11334.323855 11147.162812 10948.636886 10738.606299 10518.822269 10290.286736 10053.518133 9808.835476 9556.537259 9297.003362 9030.742900 8758.405410 8480.768668 8198.713161 7913.190497 7625.190807 7335.712371 7045.735335 6756.200396 6467.992629 6181.930199 5898.757413 5619.141457 5343.672093 5072.863653 4807.158659 4546.932544 4292.498954 4044.115213 3801.987446 3566.274725 3337.090983 3114.501980 2898.510942 2689.017380 2485.710272 2287.791853 2093.221087 1896.348645 1678.841687 1495.374027 1394.546469 1340.584711 1317.998307 12855.755109 12945.668006 13158.993916 13462.702136 13597.668486 13421.119766 13079.224826 12689.631912 12393.575688 12154.526835 11941.102442 11777.124912 11631.669581 11488.675536 11327.939323 11145.258255 10946.734104 10736.642360 10516.857534 10288.335871 10051.587454 9806.939834 9554.701750 9295.259320 9029.122977 8756.939576 8479.481610 8197.622955 7912.308291 7624.521183 7335.254127 7045.482478 6756.143199 6468.118655 6182.225225 5899.206227 5619.728510 5344.382018 5073.681650 4808.070782 4547.925909 4293.561932 4045.237693 3803.161389 3567.495479 3338.360454 3115.836317 2899.959142 2690.706946 2487.962843 2291.436856 2100.563548 1914.813505 1738.728206 1589.628723 1485.640090 1424.071137 1397.663704 12884.826642 12948.055560 13066.306054 13192.026101 13234.170215 13132.287305 12931.996241 12685.266672 12443.636535 12223.062570 12022.966709 11842.714576 11674.621260 11507.941661 11332.969783 11145.393709 10945.572133 10735.094966 10515.205098 10286.662907 10049.922403 9805.301689 9553.112866 9293.746121 9027.713121 8755.658871 8478.351735 8196.660189 7911.523079 7623.918337 7334.833413 7045.239429 6756.070000 6468.205020 6182.459197 5899.574880 5620.218532 5344.980177 5074.375150 4808.847534 4548.774759 4294.472897 4046.202357 3804.173753 3568.553962 3339.472688 3117.030607 2901.311798 2692.407329 2490.467668 2295.832562 2109.379675 1933.485225 1773.846240 1640.042418 1540.547884 1477.963397 1450.271882 12893.268251 12942.339031 13023.013001 13097.573296 13112.204496 13035.282405 12877.674636 12673.726544 12457.579147 12248.173095 12051.457295 11867.269019 11691.025479 11515.800733 11335.035528 11144.832339 10944.162300 10733.491289 10513.589827 10285.073098 10048.361945 9803.775709 9551.635033 9292.337021 9026.396444 8754.457841 8477.286540 8195.746467 7910.771301 7623.333828 7334.416799 7044.987324 6755.975798 6468.259690 6182.652036 5899.894168 5620.652087 5345.515801 5075.000976 4809.552293 4549.547976 4295.305094 4047.085330 3805.101147 3569.522595 3340.485723 3118.105090 2902.496440 2693.823643 2492.401655 2298.921561 2114.909498 1943.489301 1790.078127 1661.791629 1564.911072 1502.755717 1474.896656
</DataArray>
<DataArray type="Float64" Name="Velocity" NumberOfComponents="3" format="ascii">