<VTKFile type="PolyData">
<PolyData>
<Piece NumberOfPoints="2064" NumberOfVerts="2064" NumberOfLines="0" NumberOfStrips="0" NumberOfPolys="0">
<PointData>
<DataArray type="Float64" Name="Pressure" format="ascii">
 21651.643975 21652.293519 21667.577840 21715.558304 21832.655794 22053.594316 22355.931251 22590.897231 22544.186446 22083.809120 21213.964153 20072.339534 18892.569421 17841.853903 16936.559795 16113.166339 15288.675524 14415.197052 13523.208589 12647.027586 11770.199989 10917.324665 10167.124267 9557.352919 9052.643551 8600.156199 8168.694449 7748.248611 7333.438493 6924.529927 6526.325290 6142.954000 5776.380933 5426.958524 5094.157443 4777.088558 4474.829646 4186.598452 3911.822196 3650.147436 3401.422593 3165.673692 2943.084026 2733.980860 2538.826449 2358.206201 2192.803369 2043.347592 1910.525240 1794.845897 1696.478005 1615.106017 1549.909232 1499.723519 1463.207878 1438.767202 1424.555802 1418.689519 21613.505917 21623.129066 21649.011880 21708.239754 21848.659764 22133.030931 22604.122142 23059.536109 23168.694733 22778.853615 21837.761743 20485.519806 19146.142779 18075.950909 17202.938530 16416.296358 15593.880185 14636.742429 13659.425948 12772.817394 11837.694906 10853.537599 10023.026247 9426.984934 8966.743869 8549.461459 8134.562550 7732.990405 7329.277379 6924.616376 6528.198071 6145.737584 5779.498570 5430.097580 5097.180542 4779.959717 4477.565001 4189.236451 3914.407152 3652.721777 3404.024408 3168.337084 2945.840482 2736.860287 2541.856916 2361.411616 2196.198482 2046.929619 1914.260471 1798.646496 1700.157191 1618.297790 1552.014036 1500.143990 1461.988618 1436.638018 1422.114665 1416.065336 21541.882435 21570.649812 21617.883618 21664.870195 21729.460268 22022.806049 22971.320730 23971.875676 24414.103634 24243.316768 23221.786675 21133.829348 19363.416833 18405.705014 17651.047596 16978.973542 16260.955429 15040.860680 13805.873995 13128.144086 12116.980701 10700.407456 9624.472302 9132.582501 8806.508965 8468.547680 8059.690181 7704.812516 7325.838545 6922.265213 6528.749177 6147.710328 5782.025744 5432.758100 5099.791322 4782.459382 4479.952597 4191.538159 3916.658455 3654.958744 3406.280371 3170.642236 2948.222683 2739.345855 2544.470486 2364.174354 2199.123931 2050.015827 1917.474519 1801.889208 1703.171697 1620.427446 1551.664430 1495.060356 1451.973378 1424.867417 1410.425028 1404.490073 21429.824400 21502.663494 21618.869742 21591.751176 21211.714658 20999.537546 23511.310440 25232.079629 25052.235666 26591.775958 25318.761179 21303.839924 18973.603617 18510.927823 18052.297602 17560.035251 16922.781063 15308.926000 13434.247482 14013.613944 13101.196726 10125.014726 8622.502782 8751.882025 8514.018818 8538.024230 7734.923855 7733.733273 7304.057322 6917.150344 6528.632439 6149.319010 5784.271300 5435.188716 5102.208873 4784.789080 4482.182502 4193.686459 3918.755282 3657.036736 3408.370576 3172.773075 2950.420292 2741.634606 2546.872746 2366.708752 2201.801374 2052.831998 1920.395425 1804.818516 1705.859953 1622.164653 1550.010167 1479.120755 1421.742662 1393.527017 1381.199015 1376.366441 21255.626398 21399.880696 21713.424385 22111.043687 21154.109230 16160.632456 19116.358673 18177.403727 19599.173954 5833.010980 12487.511040 12729.725884 24246.369217 7928.947286 16723.601857 25692.353652 17103.550938 17585.048523 16034.218348 16751.626140 20809.061321 21873.817521 13542.364090 17741.922807 17065.118343 22674.982636 13467.142417 18629.441997 16224.536356 15509.644286 17006.490679 2534.343698 16039.429655 14725.612868 15097.507484 18705.933330 2423.108266 21781.859023 14208.806299 15026.606719 2721.228250 15472.429461 15763.616638 13847.414143 1346.366163 1329.124180 1324.246284 1322.717950 20978.827987 21145.088011 21544.792453 22457.419012 20222.468592 -904.836718 12685.578252 7777.648475 15249.802911 12639.609980 6705.518975 13111.062298 17780.509061 9761.631984 14207.775145 13822.071424 10871.588095 12059.293319 16173.430515 6809.541912 15368.916928 21920.450230 11384.137513 12605.130138 7084.514985 12247.373312 14216.406192 15639.413640 13365.650896 16678.274076 12545.269646 15213.999766 21901.090249 13958.255660 13484.316842 17818.684026 15145.861876 14097.413372 17583.807180 17100.602168 13786.205847 16303.300651 18268.044199 15388.072223 1218.701188 1220.897538 1229.893596 1235.464210 20578.769401 20646.577768 20580.721616 20658.366704 12691.939493 6164.053643 7253.416429 5492.121637 7770.237713 5589.299328 13490.212409 13023.976126 12197.563503 12843.069385 5011.625938 6051.003104 3812.154179 15754.651425 7525.184614 11679.943120 7443.758023 7762.598532 11198.829885 5096.650135 17790.010446 12237.689990 10709.867174 14198.844028 12720.163784 12790.877591 16386.608234 3473.284043 25150.955264 14826.392809 16631.885243 23786.920959 1474.552571 17751.699879 15022.421210 22458.339752 18433.406941 15188.283962 19586.391960 24969.090580 1034.148508 1056.517779 1091.167376 1111.008249 20098.826712 20067.187958 19697.095697 18940.329970 11084.305701 9591.643910 6686.815743 12774.843130 11251.901647 8931.055932 7496.588943 7478.545109 4906.197865 15287.589597 8414.966128 12866.431808 6247.961379 4951.856553 6077.463038 11916.185762 10598.975938 6793.781109 8347.533102 14004.816633 1664.165567 5021.863242 13728.259347 7558.391106 17312.186447 9708.859284 12042.784571 12521.002728 21512.838620 16232.753702 21437.021484 14283.465451 25054.718721 7112.789839 14493.221463 5819.889841 24482.196939 2377.001095 15033.308815 16348.461573 748.066519 819.491233 908.670266 956.067972 19613.242407 19566.701696 19411.230600 19362.274188 8821.558603 7341.997496 12034.303153 15406.798028 14733.881671 25796.981920 12596.891984 5643.605030 9614.411392 5410.595531 2990.043239 21155.111386 8960.219796 4111.140235 3886.871821 15985.119778 14988.903796 11276.968228 4560.656223 12115.963190 11794.994784 8305.600186 8292.352594 14588.305894 10739.084886 3656.565300 25961.715243 11724.480955 6903.760777 12895.476656 15240.065505 8981.964712 5642.858218 14245.515378 13679.339633 10401.111576 7792.473505 -3580.866690 7334.720951 7568.184226 285.036599 499.536334 705.375422 794.708357 19163.748459 19131.479879 18970.397497 18651.638798 7420.083309 14295.011161 5102.890109 3606.233039 4854.197738 5726.754655 9296.206917 9044.391443 12549.501509 5029.677425 14676.763179 3994.170355 6435.517705 4512.708133 1191.701281 3411.262463 8995.918484 13398.455150 8183.344049 12194.898614 4791.700255 14756.830574 12818.822666 3086.287265 6914.368932 6585.338884 -1027.353501 4916.481075 5585.477787 13874.845756 14868.113644 13020.290329 7637.357928 12530.954352 17718.949874 14806.181568 10605.148621 12839.006541 6659.428361 20232.832943 -534.441737 217.836565 541.558934 666.915240 18738.135933 18792.749335 18995.889251 19504.200485 4477.501122 6634.026059 3852.189823 3942.458524 9976.099107 10802.220122 5540.652298 3504.917271 4053.080086 3772.793536 8347.914757 4242.267760 6416.546003 10489.657599 5016.761629 4304.518127 5026.759340 11009.974236 10584.007808 6386.336962 1059.747686 33737.132071 3150.634447 15025.337324 14512.714482 13737.176013 4527.835576 7005.566599 7983.396304 7600.405669 15038.050343 14308.034248 4124.000425 7202.230297 8682.257097 6303.735285 14502.014015 23600.116814 12315.664178 1154.627269 -914.866553 159.867653 480.954431 605.988620 18271.626027 18351.660171 18593.371883 19254.300514 3515.242650 5092.677565 3445.487353 6646.252391 3548.696120 2655.453329 7414.065652 3642.196768 4761.088497 2975.974818 3991.019734 3733.147149 7125.899278 10343.780976 4625.681021 3718.831054 6678.612170 4887.497366 3479.408840 4951.300116 6993.912791 4447.631944 4401.081755 5962.746331 3589.988103 13669.923691 4338.430295 16142.655547 20484.341568 16622.559924 7255.618955 21258.289628 5842.809015 12638.914374 17004.744070 -4074.243426 6902.003922 12949.704180 13977.943263 6276.642553 -79.674276 309.108007 520.509355 610.743890 17761.357647 17832.057387 17912.368695 17816.448156 3942.490393 4794.595020 5220.209871 3705.065551 3845.960661 10487.774386 3957.305194 3683.304595 3666.205447 4889.707106 2924.411873 4179.534030 9613.122798 4310.252710 5094.525455 10655.807772 4606.804233 2848.869252 5202.627430 9850.335782 4008.303488 3555.723846 9552.567122 3850.288450 5310.902669 11708.745174 23680.211900 5051.715210 3823.582970 7180.981954 13708.447692 3314.713135 -2967.353516 4743.131407 12423.158889 13927.477847 6424.607235 5755.241427 9161.928284 21959.668012 417.357460 499.486714 598.850847 647.936160 17248.905328 17368.489551 17631.563925 17672.893720 3352.958935 3822.860279 10567.938209 5418.515928 3426.560120 10691.147913 8003.212570 3581.434852 3660.394355 3664.204654 5980.582082 4589.347468 2978.387316 2924.086120 3713.171778 3236.913231 4850.493745 5184.166274 4603.806480 3641.328822 4497.151855 3346.521276 10959.321209 7568.771912 5012.668232 11284.011263 3910.655248 8139.638348 5136.711438 10147.533456 7364.754928 6934.814928 4608.280317 6001.497270 5575.750527 13436.381553 1474.552571 25056.382974 20947.177170 5748.899570 594.193511 619.757417 658.108557 679.263407 16745.100252 16905.659587 17348.138502 18136.706038 9496.284743 3886.168331 12112.120339 10644.697600 8491.007874 10522.706676 3489.679661 9370.541562 4027.287930 11046.812481 10516.952151 8072.143966 3808.871678 3049.704797 4230.465551 5156.520782 4126.256881 9778.111528 4429.327236 3840.494904 4065.402418 3325.985834 3792.306100 11345.566888 3242.576045 10857.762377 3723.986357 5441.470605 3470.682804 4790.129579 4426.781979 8323.589544 10165.435743 6750.340372 10571.567501 9833.399410 6726.071338 16005.265435 13264.389085 5122.270341 655.638461 661.672820 674.824130 682.067882 16262.791072 16377.954356 16502.198953 16735.944518 10094.129339 3519.175034 10498.177347 4084.944324 13483.627836 12425.632080 4905.883018 7337.098610 8848.180345 10846.813125 14995.187955 4000.091059 3366.635293 8473.645892 6186.981597 10157.400480 9173.668066 6495.485505 9950.162634 3806.159902 6677.254798 3147.012697 3382.115384 3814.594778 7312.729466 3489.802344 4190.719883 8314.652434 4666.346544 4587.689933 3566.313090 4200.017873 6117.374521 4647.297031 4241.234984 9675.699187 5900.082057 6946.936281 6571.853108 5296.985434 645.896978 645.870103 649.395533 650.978460 15850.829810 15929.445928 15766.060169 14980.016521 9784.124287 9393.328541 6238.128926 22264.313764 3297.303905 10441.756284 3679.180738 10363.947314 14743.344356 7476.072464 8343.031281 4183.920902 6625.083542 7826.928658 1023.402043 10422.320858 6095.439682 4375.596376 11093.887092 12093.367187 2553.569203 9597.293700 9529.869028 3801.068971 5357.707792 4084.782474 4949.503393 3966.468693 11058.365217 3788.537916 3761.368557 9726.108115 10465.293229 10011.384324 10947.423834 5554.081086 4031.694413 4116.154542 4167.976761 4600.378609 592.110485 590.694097 591.013854 590.760979 15529.399952 15654.305454 15716.918941 15333.620189 4190.686435 7105.670531 8976.491811 3370.223329 9637.975530 3974.369658 2269.521062 2863.785911 15011.685397 3566.807956 9116.138656 10936.991717 8704.733616 8186.522315 11467.819642 9884.122208 4104.136664 12477.814000 7346.452670 3558.476513 3200.644632 10026.158123 14304.777263 7778.554112 5926.236000 10694.594529 4026.342579 9583.214403 4408.975188 15644.264574 3815.997263 10309.769646 9760.510574 9553.325683 2212.439744 1094.429534 3650.434056 5278.302637 6541.169534 4992.887466 512.061425 510.854299 510.462285 509.925164 15260.731217 15434.898930 15689.484284 15567.186235 10347.051090 10330.291965 6611.823051 11105.158070 4662.897238 15049.148067 13706.753529 3640.800739 6400.865217 17139.681418 9712.924014 6892.912951 8427.270847 2692.712378 3756.633859 10300.386383 6163.391483 4173.648334 -1422.133019 3640.145686 6008.933664 8171.078894 3848.385164 15378.436520 6458.028740 15890.768151 7738.332263 13989.584303 4804.451354 8208.829828 4527.834685 9204.273043 3425.368987 9036.477216 9182.991052 5234.418792 8078.314509 8051.881221 8729.741674 10177.113192 418.263315 417.696601 417.458056 417.164571 14978.200004 15212.471248 15705.950863 16212.605470 3874.736439 4524.438714 7587.881034 11933.331893 11130.460493 12949.613958 3311.163981 7405.649205 12320.437077 25634.770418 7531.644258 10235.781991 11407.167637 9304.004918 8654.170527 3649.210573 10098.899801 2842.361742 5159.533240 2655.049372 4525.003492 15251.754920 16925.628683 2918.417911 5162.723444 -18248.217259 4508.525759 7809.272265 9190.897393 6398.137315 7156.511064 14052.003371 15699.340343 9057.455952 10085.209620 10747.939753 10942.502358 2651.692039 4380.511310 4536.789820 319.556177 319.622426 319.748576 319.802407 14585.556236 14835.851824 15553.892617 16814.635884 5382.711544 8850.277166 5578.341209 7617.259575 8050.175854 10634.278975 4195.586275 14678.082224 14137.276852 14739.733833 17361.674190 3284.023245 3953.923006 6300.851269 5102.640988 9724.271614 16163.570757 21594.352341 6308.781848 3828.531588 4998.332965 13156.974185 8854.796306 3947.876526 4693.897242 10587.698178 39011.047041 7117.968684 16385.115495 5070.723738 19028.880478 10288.913910 5087.957749 4128.992820 15407.395475 7940.888172 10792.457616 7632.769751 4118.891684 5006.064323 221.963659 222.511479 222.970229 223.317939 14042.086703 14155.628029 14410.849804 14847.799791 10075.663167 10436.316202 8967.914543 8188.735022 8925.204408 14313.492186 5623.043609 15248.164115 14485.388873 10973.682154 15104.372551 12981.361095 9687.284173 10483.754284 14302.719983 10470.669978 10730.181247 14255.270812 17655.681033 2833.642490 1683.178859 9141.904317 14314.435954 9922.528806 8742.327886 9665.238569 11501.607160 11572.361429 11675.587317 12854.176876 15255.771632 9584.745997 3252.414709 14419.881398 13791.366631 5353.658302 4665.164584 4679.043708 11635.024479 2518.572626 129.310252 130.164543 130.851381 131.396529 13449.132633 13436.486186 13303.829796 12857.060859 3551.109583 5341.625523 7766.650620 11836.213502 1638.890589 16149.476487 4560.544997 15640.278522 5296.076903 -1829.476073 15240.732214 17416.186342 14011.575661 4171.888329 8992.623359 8109.389233 8450.756402 5243.076118 6322.070230 3881.947029 2975.888855 10968.107200 1134.559407 20912.908206 18212.891575 2106.789455 16109.152238 1272.862606 12693.459058 17713.534011 6836.754573 11269.013328 12161.555764 8354.304098 5715.525807 12406.272432 10883.063144 5640.149119 15187.076917 3058.318697 43.740817 44.749042 45.555432 46.204586 12916.793244 12898.587283 12877.416882 12778.719846 12241.295781 14039.475942 4949.079807 11425.812059 4546.007498 13514.031450 15694.891539 15751.431144 11003.466046 24408.736519 9080.420875 7181.678790 16448.967389 -5989.643605 10332.480189 13977.016720 17805.873471 15355.290898 17820.130697 5952.527193 13386.791950 4143.008254 5133.734096 9069.055520 5084.584290 2951.090348 16295.056156 16506.412892 18925.759256 12594.845809 12974.678450 10585.806362 16859.022206 25408.185292 6952.075678 11824.312592 11618.299225 4194.466648 8916.177329 7904.499715 -33.828829 -32.782608 -31.944908 -31.266133 12457.474958 12458.261088 12580.734363 13009.234260 -103.331323 -102.326379 -101.519806 -100.863726 12056.799378 12030.244240 12005.722627 12169.058411 -165.240514 -164.324978 -163.588323 -162.987498 11733.349134 11704.111660 11632.046980 11411.012978 -220.335883 -219.533903 -218.887106 -218.358466 11476.099090 11492.052461 11569.614141 11549.262546 -269.531772 -268.850445 -268.299791 -267.848947 11215.596241 11272.013375 11438.292564 11455.686037 -313.761378 -313.196660 -312.739381 -312.364423 10878.233230 10941.780405 11227.461642 11769.677600 -353.904257 -353.445590 -353.073549 -352.768080 10439.519406 10406.939564 10378.565533 10369.385429 -390.746467 -390.380159 -390.082578 -389.837956 9973.293543 9842.014470 9508.603714 9031.413992 -424.963757 -424.675284 -424.440615 -424.247506 9568.225617 9412.608625 9235.394672 9435.460669 -457.119950 -456.895403 -456.712516 -456.561879 9251.453325 9004.488050 8452.626303 7869.175643 -487.674478 -487.501358 -487.360211 -487.243861 9074.778192 8809.138620 8203.780766 7162.461762 -516.994666 -516.862242 -516.754180 -516.665042 9024.423517 8817.513324 8582.206608 8546.286065 -545.369783 -545.269146 -545.186965 -545.119137 9011.613744 8775.332199 8377.194022 8121.498199 -573.024951 -572.948900 -572.886760 -572.835451 9008.268023 8723.773365 8202.330208 7620.076608 -600.133840 -600.076674 -600.029945 -599.991346 9022.790040 8689.659433 8045.218343 7216.701318 -626.829637 -626.786917 -626.751983 -626.723121 9067.840758 8701.819762 7929.833180 6759.337876 -653.214139 -653.182450 -653.156528 -653.135107 9142.404818 8799.467341 8208.640663 7587.625738 -679.365071 -679.341806 -679.322768 -679.307032 9206.855282 8838.751539 8142.235088 7301.703633 -705.341807 -705.324985 -705.311211 -705.299821 9262.797327 8851.908071 7954.301200 6602.460818 -731.189765 -731.177875 -731.168130 -731.160068 9341.487857 8949.676098 8133.774524 6949.718103 -756.943705 -756.935589 -756.928927 -756.923408 9431.804459 9095.159511 8449.640332 7471.470696 -782.630181 -782.624939 -782.620622 -782.617038 9488.232383 9191.471771 8686.093838 8158.802617 -808.269326 -808.266247 -808.263693 -808.261562 9485.986002 9178.191949 8580.592947 8012.718863 -833.876154 -833.874659 -833.873396 -833.872329 9455.556783 9137.453519 8461.667389 7543.552142 -859.461486 -859.461093 -859.460729 -859.460402 9437.172685 9151.186405 8568.586495 7732.188047 -885.032620 -885.032917 -885.033115 -885.033251 9437.048264 9191.140939 8759.878621 8315.590658 -910.593808 -910.594434 -910.594900 -910.595256 9453.772738 9211.337925 8688.689910 8025.223904 -936.146609 -936.147237 -936.147706 -936.148064 9512.755232 9308.624466 8851.759980 8047.662228 -961.690140 -961.690471 -961.690701 -961.690863 9612.498231 9483.111415 9265.710541 8953.155115 -987.221274 -987.221032 -987.220798 -987.220578 9719.041777 9635.530402 9497.291295 9325.751598 -1012.734795 -1012.733719 -1012.732811 -1012.732036 9819.188839 9766.819102 9688.233977 9687.646089 -1038.223526 -1038.221371 -1038.219590 -1038.218098 9913.876543 9886.209483 9836.664874 9838.937440 -1063.678441 -1063.674976 -1063.672134 -1063.669771 10000.212032 10003.369029 9989.912394 9801.182417 -1089.088771 -1089.083777 -1089.079697 -1089.076317 10059.760364 10110.631966 10307.741968 10674.952807 -1114.442101 -1114.435370 -1114.429886 -1114.425353 10059.097886 10109.536606 10256.729205 10579.936325 -1139.724468 -1139.715808 -1139.708763 -1139.702948 10000.482135 10036.149941 10126.698474 10330.388353 -1164.920465 -1164.909694 -1164.900941 -1164.893724 9908.410072 9931.448211 10001.544168 10261.620127 -1190.013336 -1190.000286 -1189.989690 -1189.980959 9809.041844 9808.772985 9800.507585 9879.227495 -1214.985085 -1214.969602 -1214.957037 -1214.946691 9731.962834 9726.467699 9641.745696 9507.975540 -1239.816582 -1239.798526 -1239.783879 -1239.771825 9685.645060 9728.123336 9824.457297 9834.131145 -1264.487675 -1264.466920 -1264.450090 -1264.436245 9631.697955 9709.762617 9908.018400 10160.966771 -1288.977307 -1288.953743 -1288.934639 -1288.918929 9534.325673 9616.843958 9797.588805 10061.209416 -1313.263634 -1313.237163 -1313.215710 -1313.198071 9384.360374 9468.188119 9587.746062 9474.779718 -1337.324144 -1337.294688 -1337.270818 -1337.251198 9176.378218 9282.761997 9635.449200 10228.578036 -1361.135794 -1361.103285 -1361.076942 -1361.055295 8897.699308 8924.977041 8941.358883 8983.850597 -1384.675128 -1384.639513 -1384.610646 -1384.586933 8611.922890 8588.496370 8442.417192 8162.024325 -1407.918427 -1407.879654 -1407.848207 -1407.822386 8364.599087 8365.224208 8321.049077 7872.150468 -1430.841854 -1430.799858 -1430.765741 -1430.737753 8115.072262 8163.744174 8320.826251 8552.392556 -1453.421630 -1453.376290 -1453.339317 -1453.309037 7790.616890 7820.146356 7913.962070 8022.530427 -1475.634280 -1475.585315 -1475.545048 -1475.512187 7382.818775 7338.260555 7166.329074 6665.683117 -1497.457013 -1497.403740 -1497.359119 -1497.322975 6946.840701 6869.576818 6667.024224 6196.516609 -1518.868451 -1518.809206 -1518.757672 -1518.716534 6519.639784 6425.942075 6264.051133 6148.589225 -1539.850173 -1539.780956 -1539.716347 -1539.666047 6124.219711 5986.940929 5562.832630 4632.921232 -1560.390128 -1560.301518 -1560.209045 -1560.139378 5800.110714 5700.829524 5498.637517 5120.457377 -1580.490281 -1580.360810 -1580.205026 -1580.090508 5535.262002 5473.515539 5363.127846 5229.017928 -1600.182824 -1599.967339 -1599.662947 -1599.437310 5308.820951 5248.698657 5163.573444 5082.317171 -1619.557923 -1619.184386 -1618.521468 -1618.000298 5132.983732 5055.990412 4778.724344 4332.444761 -1638.777631 -1638.273877 -1636.693559 -1635.319363 5028.515944 5019.945241 5057.387338 5129.052964 -1658.166888 -1658.532340 -1654.019586 -1650.080918 4947.253573 4961.145104 5030.642945 5196.975640 -1684.487728 -1686.886706 -1669.039730 -1658.619061 4862.984419 4855.033159 4836.236561 4819.045846 -1744.533171 -1720.141998 -1670.636531 -1653.533475 4794.730411 4771.281674 4674.845416 4532.717291 -1760.797038 -1698.751276 -1644.406902 -1628.467922 4756.252180 4761.744567 4776.824250 4833.344888 -1648.362976 -1618.077465 -1594.436841 -1583.962891 4718.090715 4750.123183 4846.298933 4954.972115 -1548.672493 -1540.859127 -1531.153168 -1525.654627 4643.628179 4681.301593 4792.225967 5048.006624 -1469.143771 -1466.075189 -1461.912296 -1459.327606 4517.010181 4537.670440 4611.841219 4783.132163 -1392.951561 -1391.659621 -1389.857607 -1388.684279 4351.042897 4328.110944 4292.185387 4299.208461 -1317.542952 -1316.947927 -1316.140369 -1315.596853 4188.456186 4122.595500 3936.423730 3651.676975 -1241.884134 -1241.572112 -1241.181312 -1240.908852 4073.846548 4010.275951 3860.184734 3590.835193 -1165.546246 -1165.350438 -1165.133948 -1164.976117 4010.995118 3979.545612 3902.673762 3740.782151 -1088.340819 -1088.193045 -1088.049756 -1087.940215 3969.272132 3972.070847 4071.944670 4317.757680 -1010.179465 -1010.052408 -1009.941297 -1009.852951 3919.085096 3890.906843 3797.295188 3630.287315 -931.016348 -930.900790 -930.807738 -930.731274 3881.246109 3853.382084 3803.143521 3802.028747 -850.822972 -850.719937 -850.646118 -850.582376 3863.154597 3845.236048 3832.004993 3901.348776 -769.574017 -769.495232 -769.457772 -769.418160 3861.108902 3843.767543 3821.150187 3775.532104 -687.232468 -687.209597 -687.255061 -687.270312 3879.748094 3869.311622 3835.683806 3761.738986 -603.721526 -603.832294 -604.073903 -604.217631 3917.676979 3934.926667 4005.498591 4161.136709 -518.858819 -519.294805 -520.003177 -520.445993 3955.139210 3985.879744 4039.050390 4088.673768 -432.190688 -433.441849 -435.260040 -436.381515 3976.883584 4034.756249 4149.212551 4208.406303 -342.541668 -345.964941 -350.394982 -352.966362 3958.581166 4041.731556 4260.393020 4478.849676 -246.619598 -256.562756 -266.861583 -272.127826 3881.263317 3944.577764 4118.552132 4227.339708 -133.553739 -167.821325 -188.127384 -197.238933 3764.633750 3778.604424 3784.618036 3722.997454 3294.075443 2802.961991 2547.305600 2654.959019 2823.246604 2966.568847 3031.021105 3071.626655 3098.074710 3112.709905 3116.657321 3110.701700 3095.563754 3071.967323 3040.637005 3002.277873 2957.556074 2907.086024 2851.424596 2791.070915 2726.469921 2658.018051 2586.069769 2510.944088 2432.930536 2352.294304 2269.280510 2184.117596 2097.019973 2008.190035 1917.819670 1826.091395 1733.179195 1639.249156 1544.459938 1448.963130 1352.903504 1256.419173 1159.641612 1062.695445 965.697726 868.756085 771.964175 675.390706 579.052938 482.851762 386.407346 288.612784 186.250952 68.624083 -33.475548 -89.968460 -120.143691 -132.845110 3653.879619 3639.379672 3585.710959 3470.581551 3333.719501 3091.914767 2842.437031 2877.740003 2939.634250 2990.988961 3037.324388 3072.769262 3097.224871 3111.089994 3114.783750 3108.804481 3093.746580 3070.274439 3039.083204 3000.862949 2956.272336 2905.922438 2850.369150 2790.111959 2725.596863 2657.221654 2585.342206 2510.278848 2432.322255 2351.738577 2268.773701 2183.656670 2096.602355 2007.813495 1917.482241 1825.791300 1732.914806 1639.018954 1544.262494 1448.797095 1352.767618 1256.312313 1159.562923 1062.644664 965.675977 868.767773 772.021541 675.524803 579.340511 483.483247 387.870961 292.260979 196.418908 103.014516 22.244628 -34.672637 -68.547970 -83.188786 3577.816486 3554.853046 3496.716347 3399.658305 3271.551125 3127.953513 3016.757160 2980.024387 2986.004077 3013.557649 3046.276989 3075.508076 3097.282843 3110.033117 3113.305597 3107.215501 3092.186197 3068.803389 3037.724702 2999.621812 2955.144352 2904.899242 2849.440873 2789.268683 2724.829393 2656.521870 2584.703166 2509.694737 2431.788265 2351.250750 2268.328767 2183.251905 2096.235454 2007.482472 1917.185347 1825.526966 1732.681598 1638.815543 1544.087637 1448.649634 1352.646501 1256.216672 1159.492277 1062.599414 965.658591 868.785626 772.093675 675.698023 579.727680 484.354190 389.866181 296.872537 206.865704 123.306393 52.026885 -1.607145 -35.619292 -50.812840 3543.586439 3519.318096 3462.247601 3373.431087 3262.220564 3148.100909 3059.562450 3014.599807 3008.226750 3025.081571 3051.062559 3076.722976 3096.816460 3108.840501 3111.842000 3105.695223 3090.709632 3067.415921 3036.444110 2998.451546 2954.080417 2903.934000 2848.565256 2788.473483 2724.105983 2655.862565 2584.101345 2509.144826 2431.285635 2350.791580 2267.909904 2182.870723 2095.889737 2007.170318 1916.905090 1825.277119 1732.460804 1638.622550 1543.921275 1448.508806 1352.530196 1256.124013 1159.422650 1062.552797 965.636344 868.792368 772.141742 675.817947 579.992444 484.933369 391.136753 299.597347 212.264489 132.474642 64.643083 12.790327 -20.782595 -35.998283
</DataArray>
<DataArray type="Float64" Name="Velocity" NumberOfComponents="3" format="ascii">