<VTKFile type="PolyData">
<PolyData>
<Piece NumberOfPoints="2064" NumberOfVerts="2064" NumberOfLines="0" NumberOfStrips="0" NumberOfPolys="0">
<PointData>
<DataArray type="Float64" Name="Pressure" format="ascii">
 18545.407675 19220.120985 20369.842217 21724.239501 22727.272279 22801.776949 21867.689208 20351.442088 18642.832337 16888.998590 15200.006876 13715.934216 12512.876734 11591.269176 11073.179797 11103.075144 11536.214148 11836.776424 11466.677956 10467.771540 9226.159044 8002.175836 6884.911808 5903.601300 5066.450108 4366.960625 3789.831008 3316.333005 2927.667866 2606.759679 2339.105417 2113.025633 1919.510319 1751.819616 1604.984999 1475.324264 1360.038064 1256.912618 1164.123033 1080.116176 1003.548053 933.253526 868.231825 807.637236 750.769306 697.060475 646.061594 597.427684 550.908592 506.353217 463.743737 423.286803 385.579833 351.770692 323.430587 301.980083 288.189771 281.989146 18968.925908 19623.717059 20835.293166 22391.326452 23599.298457 23421.454037 21838.520426 19933.309698 18193.307641 16342.951461 14419.476936 12890.253425 12077.365415 11684.849704 11711.850353 12449.989868 13604.449226 14007.715434 12868.340476 11076.414548 9473.921822 8133.496754 6971.159560 5963.694278 5109.917982 4399.559517 3814.931676 3335.897188 2942.935559 2618.638252 2348.338468 2120.240555 1925.220216 1756.421142 1608.766713 1478.485137 1362.710431 1259.184126 1166.054304 1081.753163 1004.929539 934.414899 869.206365 808.455959 751.460042 697.646455 646.559235 597.842377 551.225501 506.516818 463.615659 422.577813 383.824918 348.559853 318.911129 296.811069 282.883454 276.703501 19400.941121 19995.948346 21204.796421 23191.969397 25470.572705 24714.074160 20983.672830 18160.030927 16933.631806 14972.814146 12248.543008 10218.547770 10668.003593 11699.976773 12945.314040 15606.339659 18596.343574 17975.011537 13640.423007 10917.202108 9377.981085 8204.053591 7047.514749 6021.730461 5152.019691 4430.551121 3838.337609 3353.903780 2956.898377 2629.480268 2356.763532 2126.819192 1930.414055 1760.589485 1612.175048 1481.319986 1365.098008 1261.208832 1167.774226 1083.211375 1006.161307 935.451577 870.076959 809.187232 752.075696 698.165518 646.993047 598.188219 551.451927 506.528866 463.172557 421.106812 380.082662 341.014549 307.771573 284.525930 270.746288 264.820955 19640.703771 20018.844845 20752.101066 22579.238620 27511.598906 27538.077897 17857.217994 13649.522104 15480.495063 13386.609248 8914.947359 5298.397893 8495.194080 11766.907925 14228.267115 21891.179073 28917.310400 20199.605103 8690.453290 7945.389024 9167.422603 8200.505674 7079.180420 6057.422025 5183.363644 4456.391442 3859.221545 3370.618843 2970.163057 2639.923440 2364.944301 2133.231309 1935.477588 1764.642919 1615.475603 1484.052829 1367.390974 1263.148473 1169.420070 1084.606834 1007.340989 936.445500 870.912501 809.889590 752.667432 698.665419 647.413996 598.532773 551.701969 506.619528 462.921078 419.991839 376.411424 327.846135 286.512038 263.744368 251.573530 246.467378 19550.644833 19636.505159 19528.558821 19510.958533 26283.493882 26773.647083 18394.023947 38798.143621 4656.686721 2005.394655 10477.042705 2213.707033 -6848.194212 13109.337061 4906.171293 12043.794225 35416.999969 5836.900367 12543.853530 5571.403305 15803.456812 37855.063641 5232.661979 24391.011868 14221.060563 54893.535410 6975.589976 2083.681713 4974.549820 13068.732698 15594.121705 -4591.107331 17091.955703 3701.606788 11106.668180 32343.672880 65500.599657 8694.096727 37630.155952 7636.346623 8518.455070 57398.681547 12664.627130 28021.634190 248.015885 234.393173 226.269064 222.632379 19060.404121 18970.149014 18852.546464 18357.860068 5392.064871 -22823.465407 10053.765452 14240.607800 3583.213272 11071.597491 13659.726131 9145.504471 6522.875834 9539.218979 9033.836913 19217.743739 8294.640910 9349.157790 2873.002361 7387.008604 1268.969766 6996.212033 9487.879368 7104.013448 14604.763200 1641.959224 3313.125332 4068.136698 8878.140125 6812.421392 7314.576139 7758.684200 1617.413495 4385.871591 2902.391427 2438.101212 3394.712088 7809.675072 13072.816956 6280.680237 16088.103024 24644.575583 2467.902708 12211.499358 205.066692 201.142484 197.050028 194.964428 18066.887512 17674.791771 17175.546406 17198.904983 9023.768562 14496.646608 11595.359700 11660.103681 14940.520900 14202.412563 4659.800840 10041.539414 9605.797318 12992.492584 10454.834036 13945.136974 13857.446434 8977.790921 12072.120252 3500.499785 14260.581045 12962.666223 3852.204781 10726.984947 7415.268233 11747.139385 12053.032463 4694.823594 11036.796437 11257.530092 4695.467873 -13794.921586 8369.717493 14930.299800 9598.160780 5210.104519 13419.965746 23587.818854 6369.189175 46096.992795 11697.614236 4398.425600 3273.268555 9039.311167 169.297100 167.964023 166.218021 165.210109 16657.942496 15762.239589 13803.868612 10764.726406 12522.067837 11574.128505 14532.432832 11629.879296 9567.558377 11254.944140 14477.561145 14238.646139 12825.098937 7085.633048 11739.110550 7704.656800 12143.041751 10199.792666 15195.911559 5721.265324 8032.551342 10839.738699 15216.281266 3609.466780 13165.490269 12701.617603 10337.720725 10143.549114 5922.554943 13065.040230 11801.142168 5290.725113 -5439.579226 4119.562176 -4392.917678 4491.352468 2679.354811 9799.276787 5880.764182 22752.899148 4121.520164 10071.172392 5349.703051 9216.738801 136.253785 135.778616 135.071043 134.638449 15179.686817 13970.585747 11154.547068 6168.802571 10780.248514 9239.967449 8316.777593 8240.197959 17286.953806 19758.554392 5310.732715 12150.469858 130264.375656 10197.715835 11926.974413 7491.827001 15659.239152 10572.433299 10510.249918 21117.880008 8044.328272 6265.227110 8781.311862 8277.778352 12608.632525 11556.962216 14339.226255 8134.081870 7584.679297 13918.531253 7461.788453 13370.164715 9331.534920 8321.541669 9475.280955 9667.032658 1797.590980 4234.106480 11422.950109 11044.570162 13878.091395 -12346.687386 14587.238695 5657.926231 104.540378 104.382599 104.112645 103.946537 13912.677140 12752.800807 10318.808144 6609.510511 9872.755504 8688.235412 9534.431802 7594.696398 10014.309857 -720.117320 7737.873387 4215.291363 9287.694741 9205.935619 13720.718662 10625.020861 12933.376035 7942.154657 49389.281575 4159.020973 4815.108986 62.242610 16769.952199 4642.272162 9814.388538 10832.790479 10026.222001 -4641.818375 13946.762074 14137.505734 -2153.332976 19005.290922 14172.862897 4548.199023 6653.371200 7654.383141 10366.012687 7874.171489 12383.362928 9916.743893 11343.200869 3843.065376 12728.823596 7766.985136 73.624571 73.590497 73.502277 73.451823 12898.390945 11949.951159 10165.147855 7999.667311 9494.920266 10056.000177 8904.189974 10355.237374 10086.247977 8692.027132 5684.597084 9747.876713 9684.993729 9062.113845 1715.614033 6401.666745 6700.768231 8217.990095 7482.092359 8404.850090 6990.822183 7268.083672 2089.162593 6032.998724 121491.122646 36.962322 11303.242534 7074.892276 4696.021658 7753.564327 13128.015507 17095.376324 13878.685826 10665.654370 4413.653163 3854.286496 11772.656205 13410.083290 7034.881533 15277.746983 7081.011305 9766.710012 5998.971995 7270.324153 43.282124 43.297457 43.284408 43.282712 12075.072698 11286.104411 9870.573327 8248.323892 11911.435778 8866.289056 9164.466397 10246.153759 9501.617973 4264.718692 7458.876124 7878.672808 8423.321895 8974.577048 5885.228499 4152.658060 832.863788 5998.277942 781.672548 12404.388815 3513.323995 7249.955336 10655.755011 9092.559930 9323.839334 1487.123276 7517.315732 9915.289208 10408.059402 5820.111131 5053.768679 6261.124093 3728.122915 10864.714249 10671.477380 32813.330527 9591.437765 13078.933225 16566.208890 123549.992199 16364.562622 8134.232681 -25313.843575 12078.954319 13.416119 13.451926 13.470342 13.489265 11437.419091 10754.056971 9363.814699 7517.033708 10041.377884 9516.422830 7905.580127 9938.456449 10904.181109 5300.605880 7151.433301 7813.572217 10887.333554 6433.705026 4603.806939 7132.686720 965.379218 9629.505766 7424.902957 10334.797788 5765.492382 5373.375926 8746.900899 9115.972191 9578.199459 9634.373783 9236.758847 6292.450500 6134.752708 6699.087131 54579.400860 66.006168 7758.938395 10594.669115 9877.115364 -4502.570536 2911.744193 11709.029652 9380.235971 5795.897166 20006.572497 19542.785567 14317.610700 17007.272756 -16.010621 -15.965280 -15.932901 -15.904665 10999.164318 10533.642459 9767.933984 9036.377782 10277.883461 7451.027381 7122.376255 8038.841600 8704.337683 7070.107461 11718.463706 9790.017373 6412.663830 7586.425333 4438.502724 6666.690013 10136.310537 3010.645915 7724.567015 7766.684376 9124.623985 9780.602693 7816.954541 9931.708833 3340.083417 7520.808350 8015.709651 3891.640006 8585.190080 9300.830837 11722.337045 12333.849444 12282.549313 7523.641950 8779.402988 7932.696640 9607.153493 13223.209157 10371.242818 7282.960261 -7848.716449 21622.428984 5446.725661 -24356.831730 -45.003704 -44.952611 -44.912981 -44.879698 10655.477463 10404.548682 10208.663576 10906.397804 10494.583071 9228.989114 2845.171899 8045.893506 8323.085340 11751.963249 9758.732730 11403.843620 5680.872915 7872.323214 9843.333379 1763.813917 5199.952393 10428.294920 8694.133952 10386.428067 7625.146704 2848.864385 8950.948704 5538.569964 11345.185926 10160.061755 8863.407096 2867.415245 8944.936535 7401.067913 10010.609907 10258.107360 4460.607288 8351.470928 8780.952617 7214.227988 5217.969428 8082.657342 6904.776734 7303.772562 11457.948580 5909.184776 10157.353624 16724.091032 -73.550458 -73.494673 -73.450189 -73.413316 10266.331223 10158.114953 10233.742434 11279.912871 6864.894299 6119.049875 6762.313134 9621.973063 6770.799445 4761.706541 10050.848244 5700.344777 1513.749971 7127.573834 6248.341623 11070.972212 9500.140573 11827.674006 8651.166823 9558.347639 6449.688370 9387.118196 10840.810864 6366.136598 7216.243050 8369.972200 8830.312224 9530.970941 9648.538523 8310.808547 9526.078397 12322.320784 8292.959197 6429.632458 11298.362052 9934.409833 4205.971526 4773.601078 10363.090703 5841.007102 5858.578651 8531.429887 -4733.547746 9933.531381 -101.627376 -101.567083 -101.518537 -101.478516 9743.784859 9709.819344 9994.839506 11044.963033 6618.491907 11050.246683 12745.074454 8761.312317 4846.436613 5367.705166 3923.267753 8998.673413 8071.350045 8609.721256 3015.175905 9522.838396 10423.760139 12461.338567 8680.033443 6323.162945 12754.523881 6940.546734 10118.684668 6808.754120 10288.860892 11797.823743 5600.467702 10279.586742 12101.818201 7180.840161 8084.928158 8774.299817 6857.261991 4165.533562 6399.203508 7099.484073 8014.368085 7737.944280 10731.405673 10555.970283 6461.266951 6331.383497 10217.531712 11535.803846 -129.205170 -129.140433 -129.088147 -129.045153 9079.423163 9023.269465 9298.996596 10645.928443 5741.835512 4775.190847 7473.988748 9196.069429 11610.520104 7633.577033 9261.723323 11184.060722 8071.196092 5539.350056 2191.219710 8702.711417 8680.005510 8853.489689 5805.350068 21224.089534 12121.470495 6827.834860 5749.719941 9319.329531 6734.539670 5845.654583 8807.498658 11502.573889 11135.564482 8198.516965 5107.718269 8671.683833 6584.604918 5519.567473 9755.181629 7727.473457 5979.110888 7045.527680 9970.429667 8969.055900 6846.613496 5858.345434 5392.650347 6450.913967 -156.252734 -156.183791 -156.128069 -156.082316 8362.294208 8178.181049 8080.247703 8032.820364 6291.026754 11625.697895 9352.044950 6434.142289 5315.203222 6428.050158 6337.934730 1701.734412 9706.598169 5547.770113 10500.779565 12120.016618 9753.389080 8974.925766 -4743.562473 9448.937791 6220.288630 10423.312176 7231.448167 5637.298302 11171.761256 10274.833561 12069.688968 7770.405172 10044.378506 6228.387828 11250.368928 5499.938662 8555.259646 8074.047407 10961.825159 5157.795726 -928.125194 5946.057455 8828.629855 8681.556999 12096.297684 11075.809062 5836.796032 10311.490127 -182.740446 -182.667803 -182.609099 -182.560941 7736.716325 7394.772150 6856.001318 6209.718516 9382.604221 8703.859730 6516.138288 6410.672931 7915.789201 2382.805552 8849.866282 4255.881995 9017.915289 9100.613385 11702.290626 17481.703229 8138.684061 7452.381158 2826.715775 8091.640765 8416.680755 7220.444518 5784.219291 4842.642029 8374.381269 5475.387815 -15829.316618 4781.995549 9271.929496 10279.700961 4272.449041 10083.131596 11847.550618 2284.761094 9962.278934 6179.160657 1936.199306 11296.733959 11861.558246 10037.329414 11161.199783 1813.989230 6531.206382 8781.114714 -208.642928 -208.567359 -208.506311 -208.456265 7313.300881 6868.414760 6265.129770 6355.319317 9252.289605 10983.312364 3635.279873 9030.590575 9035.422581 7242.267964 -3545.589604 10127.649195 7643.722622 1875.427528 37702.916341 8735.628162 11345.956293 10093.928376 7329.249514 5882.782888 6538.126947 42160.514594 11690.861662 5468.698005 10869.349481 11432.352674 7160.454084 4416.908089 11998.888405 7067.144322 6878.199763 11136.018234 3008.804904 8562.623136 19335.035651 6742.408930 13277.425688 9958.991713 6501.999956 7877.588160 -5930.806424 11486.751884 8298.232889 2590.509580 -233.941270 -233.863772 -233.801189 -233.749910 7116.005508 6513.088785 5339.164229 4080.044181 8955.482101 6873.009789 6388.229023 9765.137533 12304.523199 2633.181423 4417.596151 5652.571994 4418.363299 4388.444926 7649.747621 -17583.322065 9780.176207 10994.118251 3136.596683 9986.705822 12379.761107 9.909487 12871.835398 9829.809832 8535.004877 5620.490873 6336.064036 11264.454426 891.229947 10292.816291 8408.140201 9673.190752 5776.866953 7188.437995 5907.734591 8435.107767 12058.269442 17706.160161 66429.101225 12064.780504 9543.313565 7650.491712 4764.801244 -769.554948 -258.624694 -258.546427 -258.483244 -258.431494 7173.374297 6497.253723 5105.278229 3174.297414 -260.408462 11840.264148 2117.345523 3660.099896 1910.007481 10075.053119 5790.954779 2113.921751 8977.459095 -1927.507235 1519.961380 4705.097048 7525.501495 5541.889452 9546.779255 7613.165013 7641.129214 11283.806222 7858.449793 6292.064765 7102.729367 4489.082937 8073.585790 17848.099360 5491.805490 8407.057177 4823.223633 12817.412857 7099.129825 8890.626012 9579.561140 4500.282177 8775.790888 9992.598652 4279.203145 10055.328283 10796.640788 8017.520974 1467.677395 4885.421718 -282.691665 -282.613889 -282.551118 -282.499722 7455.232095 6828.093037 5639.149531 3965.649518 8214.101566 10633.441204 16909.103103 7298.695689 -5772.207796 6174.489436 8401.968837 -554.645811 11070.155466 8959.355183 8802.276993 13866.332737 18206.171969 7479.632006 9358.739547 17006.066443 25483.527799 4339.403634 4046.476406 9594.469883 10075.766775 6396.829140 5866.290240 7271.676997 2446.144568 8692.240768 1816.705526 4369.807030 6416.158324 3555.231641 34245.124153 2340.289891 40574.948320 35232.866964 12555.765194 8362.767351 8080.011756 7501.004899 12090.897926 9517.698230 -306.150472 -306.074480 -306.013160 -305.962968 7852.710135 7300.683672 6389.856535 5381.634080 -329.019320 -328.946383 -328.887537 -328.839381 8283.375406 7738.478450 6709.280055 5437.142417 -351.326007 -351.257325 -351.201919 -351.156588 8775.258800 8282.220876 7280.022162 5925.462783 -373.107258 -373.043923 -372.992836 -372.951047 9359.873847 9022.939189 8394.254611 7527.918753 -394.407798 -394.350766 -394.304769 -394.267152 9979.429790 9833.990745 9652.995330 9361.502650 -415.279250 -415.229326 -415.189067 -415.156153 10523.952790 10525.629682 10682.742195 10855.357913 -435.778928 -435.736757 -435.702755 -435.674968 10910.258514 10944.140494 11163.081593 11614.682119 -455.968593 -455.934658 -455.907304 -455.884964 11151.737950 11112.631048 10950.281875 10800.866199 -475.913224 -475.887853 -475.867413 -475.850736 11344.252235 11285.262966 11027.610960 10115.448978 -495.679844 -495.663220 -495.649843 -495.638950 11527.604144 11530.727775 11633.913299 12170.447024 -515.336438 -515.328612 -515.322338 -515.317266 11660.003822 11638.989964 11517.258044 11252.083247 -534.950969 -534.951872 -534.952649 -534.953352 11767.872248 11727.205574 11573.629607 11238.902522 -554.590509 -554.599971 -554.607660 -554.614026 11915.142792 11903.411238 11804.981296 11288.789399 -574.320480 -574.338240 -574.352632 -574.364490 12116.486092 12188.808567 12420.030739 12665.023474 -594.204007 -594.229728 -594.250552 -594.267678 12321.378864 12417.715224 12746.625789 13650.763116 -614.301361 -614.334641 -614.361573 -614.383702 12510.575447 12541.218503 12542.591775 12498.561855 -634.669490 -634.709875 -634.742545 -634.769376 12724.213259 12724.163765 12625.901534 12243.048480 -655.361628 -655.408615 -655.446618 -655.477818 12980.330284 12985.182756 13051.854975 13413.603310 -676.426954 -676.480000 -676.522899 -676.558108 13280.709212 13234.371365 12937.395106 12288.205286 -697.910305 -697.968836 -698.016165 -698.055001 13670.166820 13677.015138 13638.583906 13287.521128 -719.851931 -719.915341 -719.966611 -720.008674 14127.695467 14185.627913 14287.315164 14411.510668 -742.287278 -742.354936 -742.409636 -742.454506 14613.621792 14708.339226 14696.101665 14096.062018 -765.246796 -765.318049 -765.375650 -765.422893 15077.922767 15302.696804 15631.112678 15083.607502 -788.755779 -788.829952 -788.889909 -788.939078 15400.064356 15734.249555 16399.159736 16301.873871 -812.834215 -812.910617 -812.972372 -813.023008 15494.780685 15831.526833 16349.596492 16331.738053 -837.496673 -837.574599 -837.637580 -837.689215 15393.323634 15797.331242 16626.100534 17895.302616 -862.752200 -862.830934 -862.894563 -862.946722 15102.806408 15533.543561 16475.541677 17701.256562 -888.604261 -888.683079 -888.746770 -888.798974 14628.217318 14979.552332 15759.966401 16912.096666 -915.050693 -915.128869 -915.192036 -915.243803 14036.558572 14237.746880 14509.562999 14907.352676 -942.083707 -942.160517 -942.222573 -942.273422 13454.544786 13592.815769 13729.403333 13686.722793 -969.689917 -969.764642 -969.825007 -969.874463 12950.439740 13122.629428 13521.337917 14073.879329 -997.850418 -997.922351 -997.980453 -998.028048 12496.583870 12668.944083 13167.501328 14223.917392 -1026.540893 -1026.609345 -1026.664629 -1026.709905 12068.834697 12153.000982 12355.845163 12786.996001 -1055.731779 -1055.796085 -1055.848010 -1055.890528 11710.125293 11708.240989 11756.827014 11871.774020 -1085.388466 -1085.447986 -1085.496039 -1085.535375 11463.642276 11399.087063 11269.586563 11129.868330 -1115.471541 -1115.525672 -1115.569363 -1115.605119 11332.170577 11261.750015 11222.521700 11397.470179 -1145.937076 -1145.985253 -1146.024128 -1146.055930 11270.492999 11169.317500 11026.035458 11278.184005 -1176.736956 -1176.778658 -1176.812296 -1176.839799 11262.034673 11140.134479 10844.305717 10454.904765 -1207.819235 -1207.853991 -1207.882010 -1207.904903 11300.849608 11219.810824 11150.662584 10996.468618 -1239.128536 -1239.155924 -1239.177986 -1239.195990 11341.293020 11264.828040 11109.505865 10740.286899 -1270.606458 -1270.626114 -1270.641922 -1270.654797 11357.250327 11308.035985 11226.990660 11023.858788 -1302.192022 -1302.203637 -1302.212943 -1302.220484 11321.414733 11312.781252 11416.420848 11986.978519 -1333.822118 -1333.825441 -1333.828041 -1333.830082 11200.379016 11175.678335 11058.298428 10664.132704 -1365.431961 -1365.426798 -1365.422534 -1365.418948 11001.515338 11008.760603 11232.858562 11658.227536 -1396.955550 -1396.941763 -1396.930521 -1396.921213 10706.665327 10617.179142 10429.072512 10258.419514 -1428.326123 -1428.303624 -1428.285322 -1428.270230 10392.760481 10232.259575 9900.188208 9751.087610 -1459.476602 -1459.445338 -1459.419913 -1459.398993 10140.888009 9956.799694 9493.641347 8788.603204 -1490.340032 -1490.299961 -1490.267327 -1490.240526 9969.079720 9840.035720 9643.785173 9446.343001 -1520.850032 -1520.801059 -1520.761018 -1520.728213 9807.804842 9700.090050 9494.737958 9207.460338 -1550.941302 -1550.883133 -1550.835158 -1550.796015 9601.628563 9476.027867 9289.278782 8940.985898 -1580.550282 -1580.482089 -1580.424825 -1580.378460 9361.079625 9172.490137 8686.482753 7738.354317 -1609.616256 -1609.535884 -1609.465950 -1609.410132 9142.540019 9006.127561 8817.995325 8431.553406 -1638.083511 -1637.985605 -1637.894767 -1637.824014 8899.641897 8806.204543 8849.301169 9053.436645 -1665.906072 -1665.777690 -1665.646128 -1665.547130 8567.604775 8422.712821 8317.595169 8605.853225 -1693.058467 -1692.868970 -1692.649258 -1692.489711 8184.568713 7965.145113 7635.454419 7383.224744 -1719.560279 -1719.239014 -1718.817811 -1718.518476 7853.651311 7580.500763 7292.486964 6517.438169 -1745.529990 -1744.923118 -1744.028036 -1743.389514 7657.703987 7283.955651 6563.855118 5044.313168 -1771.286239 -1770.118299 -1768.071844 -1766.573824 7667.084305 7295.041438 6773.798394 6671.604577 -1797.511418 -1795.580135 -1790.545305 -1786.784200 7882.087871 7489.824328 6791.281731 6179.133962 -1826.620223 -1825.114526 -1809.715889 -1800.895703 8291.483241 7940.964358 7273.762530 6438.705704 -1860.986110 -1856.799376 -1817.622740 -1802.722609 8818.358613 8580.519455 8340.696892 8562.377340 -1868.496147 -1846.152443 -1801.246181 -1787.117014 9316.828707 9105.138935 8814.335876 8714.022864 -1802.102927 -1783.705439 -1763.337115 -1754.976208 9699.986001 9469.624344 9156.230973 8810.335784 -1728.517125 -1722.833456 -1715.412461 -1711.062377 9943.363123 9642.250261 9173.754513 9107.388171 -1667.682630 -1665.311559 -1662.089374 -1660.038068 10095.484593 9700.807171 8852.731047 8059.782395 -1608.237348 -1607.135245 -1605.670975 -1604.690012 10251.224937 9867.875851 9058.270097 7862.802296 -1548.175341 -1547.565726 -1546.828210 -1546.309998 10439.589569 10154.342800 9672.188359 9240.674229 -1486.572438 -1486.152727 -1485.710151 -1485.382330 10615.528096 10430.408115 10043.239888 9358.540413 -1422.959232 -1422.607642 -1422.280273 -1422.026149 10723.470680 10648.337031 10708.857935 10849.334172 -1357.056583 -1356.724459 -1356.438626 -1356.209877 10713.404229 10619.063768 10295.384014 9584.416614 -1288.672883 -1288.342272 -1288.069625 -1287.847721 10629.696772 10605.198225 10610.920696 10686.544811 -1217.661982 -1217.329068 -1217.062253 -1216.842599 10474.349669 10464.991086 10537.254668 10840.066437 -1143.904521 -1143.574575 -1143.319756 -1143.106749 10262.955452 10170.517800 9830.712588 9089.338335 -1067.296247 -1066.985881 -1066.766056 -1066.575261 10055.407877 9954.620898 9796.739350 9744.082050 -987.732944 -987.481591 -987.353418 -987.222491 9826.279237 9679.685766 9397.352807 9243.803830 -905.078793 -904.979483 -905.077152 -905.093635 9556.705707 9363.124217 9078.771713 9127.116398 -819.090256 -819.368727 -820.009988 -820.374616 9275.958521 9041.022919 8557.011178 8287.990476 -729.223363 -730.452795 -732.389789 -733.547390 9051.932439 8886.271713 8593.839618 8560.646438 -634.109850 -637.871063 -642.857815 -645.711854 8890.395411 8840.547637 8778.725290 8747.123572 -529.940764 -541.278439 -553.120635 -559.135107 8748.161128 8815.212032 9065.235507 9567.266362 -404.105123 -443.658055 -467.247596 -477.798081 8576.333785 8688.754028 9032.136890 9807.221764 9945.294877 8642.790744 8984.636231 8368.997802 6277.962259 5081.113630 4213.576069 3365.030079 3398.933262 3474.501041 3475.724500 3470.858202 3473.641440 3476.560604 3473.581646 3460.686204 3435.668621 3397.737641 3347.110572 3284.661246 3211.638339 3129.452840 3039.526619 2943.192009 2841.632233 2735.853299 2626.679034 2514.762129 2400.605246 2284.587424 2166.992102 2048.034133 1927.883974 1806.688064 1684.584917 1561.716963 1438.238423 1314.319735 1190.149058 1065.931375 941.885469 818.238568 695.217326 573.031243 451.838390 331.667570 212.227502 92.394976 -31.368576 -171.119412 -290.820145 -356.893422 -392.254049 -407.097431 8377.362948 8458.219839 8633.863884 8938.230025 8975.962423 8174.791771 7820.823748 6987.313225 5734.022488 4974.951752 4404.472949 3950.272662 3676.690714 3551.984972 3500.209881 3481.622854 3477.721735 3477.125836 3472.270057 3458.424402 3433.007711 3395.011081 3344.516227 3282.308314 3209.576743 3127.693086 3038.053941 2941.976710 2840.637270 2735.039733 2626.009776 2514.204326 2400.131573 2284.176554 2166.628572 2047.707794 1927.589201 1806.422854 1684.349976 1561.514858 1438.072856 1314.194984 1190.069645 1065.902084 941.912014 818.329620 695.389655 573.322254 452.336855 332.591302 214.133607 96.827177 -19.452095 -131.483286 -227.488920 -294.868667 -334.898340 -352.135838 8209.783457 8248.940225 8296.245684 8290.335096 8131.216628 7727.535004 7197.591684 6490.716918 5723.016026 5032.851658 4458.369198 4033.885184 3758.741927 3603.771217 3527.143442 3494.534784 3483.204104 3478.646247 3471.681106 3456.754232 3430.849152 3392.713851 3342.285558 3280.258806 3207.764144 3126.134599 3036.742074 2940.889131 2839.743924 2734.307936 2625.407742 2513.703439 2399.707693 2283.810553 2166.306327 2047.419787 1927.329895 1806.189941 1684.143610 1561.336929 1437.926377 1314.083635 1189.997571 1065.874143 941.934909 818.415012 695.561819 573.636447 452.923030 333.757756 216.610336 102.312389 -7.303916 -108.182242 -193.631210 -257.623868 -298.070761 -316.055592 8129.081188 8149.404519 8145.164806 8069.376777 7860.025095 7486.442054 6964.895707 6330.287923 5651.345505 5014.510208 4480.283956 4075.423832 3800.234220 3633.968522 3545.261114 3504.077661 3487.490436 3479.857244 3471.136793 3455.254678 3428.889089 3390.602437 3340.213388 3278.337525 3206.051675 3124.652364 3035.487359 2939.844198 2838.882771 2733.601233 2624.826308 2513.220551 2399.300455 2283.460537 2165.999672 2047.146913 1927.084971 1805.970230 1683.948764 1561.168324 1437.786520 1313.975702 1189.925149 1065.841281 941.946802 818.480002 695.696415 573.877264 453.354443 334.573559 218.239547 105.620436 -0.941826 -97.557244 -179.170156 -241.256981 -281.301930 -299.352668
</DataArray>
<DataArray type="Float64" Name="Velocity" NumberOfComponents="3" format="ascii">