<VTKFile type="PolyData">
<PolyData>
<Piece NumberOfPoints="2064" NumberOfVerts="2064" NumberOfLines="0" NumberOfStrips="0" NumberOfPolys="0">
<PointData>
<DataArray type="Float64" Name="Pressure" format="ascii">
 4173.521105 4135.916897 4059.170822 3944.450147 3799.899810 3641.994178 3490.602502 3358.570563 3254.397982 3180.766688 3130.719345 3090.730776 3048.630195 2997.242861 2933.576779 2857.177953 2768.991296 2670.676131 2564.182397 2451.484600 2334.421048 2214.606957 2093.399316 1971.896520 1850.959619 1731.245144 1613.242303 1497.309673 1383.708382 1272.630231 1164.220213 1058.593593 955.848089 856.071920 759.348567 665.759019 575.382236 488.294438 404.567683 324.268141 247.454316 174.175419 104.470021 38.365077 -24.124596 -82.996247 -138.258211 -189.927273 -238.022567 -282.551928 -323.482126 -360.678744 -393.808634 -422.260126 -445.246903 -462.155970 -472.782549 -477.415041 4184.448135 4148.566646 4073.839801 3959.286990 3808.378266 3640.215623 3482.873025 3343.245405 3231.215921 3157.844802 3114.774448 3081.194806 3042.575027 2992.804647 2930.002901 2854.212171 2766.553342 2668.731902 2562.698269 2450.416132 2333.714502 2214.204465 2093.243989 1971.936254 1851.149351 1731.547792 1613.628720 1497.757952 1384.202807 1273.160089 1164.778622 1059.176430 956.453078 856.697898 759.994919 666.425269 576.067773 488.998350 405.288676 325.004517 248.203996 174.935982 105.238747 39.138951 -23.348973 -82.222989 -137.493046 -189.179754 -237.311305 -281.916319 -323.006185 -360.527862 -394.234433 -423.448361 -447.032361 -464.120934 -474.675101 -479.234266 4215.493492 4182.017953 4112.086738 4002.661727 3841.184682 3634.597219 3478.850706 3312.383898 3175.438495 3103.788909 3085.089807 3068.142159 3035.578520 2988.242015 2926.595064 2851.490050 2764.347820 2666.975471 2561.349153 2449.432894 2333.050795 2213.810903 2093.071692 1971.939954 1851.289443 1731.791303 1613.949426 1498.135895 1384.623474 1273.613423 1165.258029 1059.677852 956.974189 857.237453 760.552236 666.999861 576.659090 489.605614 405.910801 325.640077 248.851230 175.592820 105.902819 39.807548 -22.679092 -81.556143 -136.836040 -188.545339 -236.726521 -281.442474 -322.786041 -360.891702 -395.885066 -427.164497 -452.422052 -469.642605 -479.725339 -483.967081 4265.075324 4234.604068 4170.415273 4088.044517 3966.572925 3721.598346 3511.635231 3333.072188 3082.151739 3014.972377 3070.133611 3060.719764 3030.699185 2984.673231 2923.710384 2849.064200 2762.315890 2665.319034 2560.052273 2448.469552 2332.384880 2213.400266 2092.872666 1971.910974 1851.393434 1731.996920 1614.231390 1498.474712 1385.004762 1274.027060 1165.697247 1060.138383 957.453514 857.734166 761.065557 667.529263 577.204040 490.165410 406.484476 326.226362 249.448555 176.199331 106.516399 40.425802 -22.058945 -80.937624 -136.224346 -187.949696 -236.166069 -280.961369 -322.495016 -361.098370 -397.598825 -434.519625 -463.560730 -479.295496 -487.784920 -491.286798 4330.632137 4305.155340 4245.524463 4162.588713 4259.146650 4264.026059 4649.384085 4863.094710 4514.848768 4854.895915 4954.086642 5532.209010 4765.846607 4186.993021 4526.339816 4320.797730 4342.590964 4860.434195 4706.556026 5103.356932 4796.756880 4300.910689 5083.603409 4173.778484 4808.936243 4824.138310 4540.223065 3742.160354 4834.185984 4623.318482 5287.744609 4213.998809 5092.400715 4569.097606 4091.631346 3878.223158 4498.930548 3987.016953 4416.517208 4900.651534 4472.361550 4847.188252 3721.164907 3120.024496 -483.924729 -492.594649 -497.972967 -500.334012 4408.001117 4393.411987 4370.362147 4360.815520 4508.582937 4705.572051 4860.834889 4426.953095 5411.495890 4645.891415 4621.543816 3108.044457 5107.733103 5099.648948 4296.849180 4278.714753 4583.832575 5061.617085 4868.774787 4110.229875 4704.306819 4679.967572 5051.919889 3814.697640 5130.586867 3994.343057 4915.308595 4298.159784 5114.374844 4725.808024 5297.421934 5300.729379 4550.660591 4373.686435 5168.727512 4467.618493 5631.911765 4079.446898 3626.748465 4994.072586 3311.413251 4791.754383 5832.851278 5996.709421 -503.748079 -506.059102 -508.604630 -509.849734 4490.402695 4482.409242 4477.775788 4503.498208 5196.534920 4774.046339 3984.933025 8278.763099 4606.368605 4232.237336 6597.861851 4717.888437 4612.058763 4910.456345 5144.056184 3864.826700 4495.561907 4214.215050 4184.457058 3717.261263 4474.029839 5379.324410 4520.107715 4089.327446 4155.850949 4970.060311 5287.430865 4344.720788 5115.966440 4766.250829 5249.768993 3751.810621 4530.413846 4766.063758 4692.980579 5074.315102 3797.115286 4548.264900 4290.047251 4071.708233 4674.507949 3418.011045 4378.796172 4459.282044 -516.543273 -517.152356 -518.104501 -518.603927 4575.439250 4568.962237 4541.979314 4495.153327 4762.860673 5074.648826 10160.164312 4585.372944 9405.829414 7671.419070 4449.035073 20731.269936 4667.450529 4181.487144 10599.304139 13991.866806 5236.933075 3940.832648 4507.708560 3207.853439 3283.825744 4658.616242 4623.819888 5227.428946 3849.888688 4510.546599 4485.811270 3575.631822 5141.324828 4749.430932 3331.249705 5044.945695 4838.615594 5051.048223 2861.723961 4726.944427 5148.823255 4639.728559 4807.550433 4849.143396 4503.192202 5293.357426 4470.103106 3794.494442 -525.352119 -525.396141 -525.651935 -525.763142 4663.026134 4667.294930 4679.910709 4731.239015 9255.832767 4051.166877 5454.061644 4584.023573 4538.804909 5695.556422 11210.330824 6411.715971 4997.918869 4424.445738 5700.509731 6096.655794 3940.013106 5549.301578 10648.105237 4893.981971 12849.215493 14859.605734 4934.635047 9293.595264 5972.270982 12257.231273 4605.811849 9452.091205 4629.359289 4972.599197 4703.259065 3934.491140 4368.559262 3986.374099 4272.238376 4336.356576 4909.720556 5973.062899 3826.432173 4265.338420 4280.661054 4279.690535 3871.373532 4455.235809 -531.173848 -531.015124 -530.983573 -530.920755 4742.909582 4746.311028 4752.251345 4808.891179 4368.504893 10381.955676 4896.010658 4445.938178 4237.108554 4907.534546 5588.506212 4450.721059 4794.031661 5011.429919 4877.960547 4426.455336 4816.414556 4362.302599 4828.339170 5221.513350 8511.051978 4840.199294 4829.145973 4809.260924 7933.931509 29665.278301 7365.834850 6071.558524 16551.545762 4985.226204 3461.127539 4338.699851 4475.405561 5459.874566 3515.035074 4743.589130 4903.245520 4024.151242 4165.879116 4118.445518 3908.084597 4305.318606 4001.958515 4585.242336 -534.456838 -534.228029 -534.084432 -533.952181 4807.253579 4796.100327 4741.152425 4646.727305 4313.152534 4929.956410 8401.711661 4225.213354 1499.824922 4810.135531 4718.320079 4762.276025 4461.559195 3978.181418 4118.796950 6002.534581 4743.012371 4107.064517 4910.801896 3658.903040 5000.265189 4047.576296 4417.902402 4667.462764 4762.638652 4417.107490 4420.784495 7330.638889 32584.346809 27014.857307 6259.467411 13306.551514 4347.814308 16383.057267 6171.030721 17344.103854 4631.954092 7340.157989 4493.345924 4669.050499 5209.837387 3987.923575 3206.270607 4161.573231 -535.465024 -535.219337 -535.038319 -534.884135 4860.840222 4844.252266 4790.885005 4763.344795 5366.594723 4278.907087 19513.584672 4674.678509 4432.689741 23109.948196 6994.430959 11344.363452 4569.537900 19302.106821 5959.125671 5256.011036 4133.092563 3363.495631 4179.378827 4500.640334 4296.620939 4046.650986 4321.634978 3898.133664 4438.392372 4733.394864 4775.353817 4701.251549 5104.506105 5738.424384 4748.251325 4736.210857 9814.025867 4679.003435 12892.093961 11674.992897 9496.803383 5545.409791 9679.991174 15858.264813 4151.428875 2337.849399 4575.612396 4533.984904 -534.402220 -534.162816 -533.976882 -533.822251 4912.516081 4901.528726 4844.569906 4723.313843 19122.408793 7216.308189 10794.013230 19727.163441 16070.675226 16031.151058 17866.841097 21182.736988 18836.202314 18163.217838 14598.006734 16826.064369 22158.078938 4636.697797 4793.312799 14435.804322 3682.156542 3753.454944 5258.773973 4009.825689 4394.149236 4654.971125 4350.653140 4559.671935 5751.436503 4484.558356 4243.153122 4826.701399 4408.098320 4913.970224 4086.657690 4739.330570 4770.390374 3982.095378 7225.398008 5540.032156 10460.012932 2835.311899 13647.805638 12448.100909 -531.461341 -531.239751 -531.064095 -530.919431 4963.930614 4977.671832 5009.163941 4994.081402 26097.067338 18141.823649 4110.431244 11244.389565 17220.872490 5279.969869 7094.524149 23439.992010 22755.454132 16463.795768 14390.401937 5159.545286 21150.080684 23766.037140 19153.911632 13356.886381 10218.721436 20680.645994 7128.470454 4366.187115 5642.636703 4393.659320 6168.575374 4588.746524 4280.536804 3782.879727 4688.578826 3862.635416 4520.448337 4882.537364 4313.242509 4343.364318 4399.540615 4690.812138 4949.697255 5335.784784 3352.653408 4399.780750 3791.862448 7515.885379 -526.847406 -526.650842 -526.493778 -526.365067 5000.834740 5030.694447 5115.893096 5255.302526 18036.803166 25044.540599 3350.531991 6936.944379 20468.130302 4917.686976 2575.639273 9226.393060 7836.928802 17098.146166 3342.799224 6311.532962 10962.913567 14040.390468 24219.183996 22572.274318 15606.207127 17762.344656 21574.863554 26192.173221 21103.130264 10201.204546 6847.848288 4718.965487 3784.089659 4428.066265 4418.965246 4342.030600 4187.919336 4211.934697 4319.180530 3644.251436 5487.801088 5074.417596 4387.629793 4940.144496 4804.294149 4597.739631 3534.013198 3908.678696 -520.790511 -520.624846 -520.492165 -520.383816 5017.012961 5046.089951 5120.485834 5323.437883 4087.869892 10700.674925 2068.284144 2473.542187 2240.916286 1717.124315 3880.485946 3616.461348 17957.768645 20551.647522 3006.116628 20207.501892 17658.312960 3725.799668 7671.820453 4984.859841 4870.382545 12885.186648 9695.172225 16724.381237 19208.720977 24162.196259 17085.410420 20993.699652 26166.081292 23651.160687 18842.361053 15714.216405 16897.283191 8363.128990 4363.275842 3587.091509 3395.603536 4384.609397 4598.619843 4325.700889 4387.487025 4604.185434 5375.820250 4779.395899 -513.554571 -513.425517 -513.322265 -513.238269 5021.709012 5048.066405 5080.019632 5084.588241 6955.451262 2593.256862 2669.219568 1724.634692 18470.502576 2367.521270 1153.753259 3591.731499 4592.545416 2500.068641 1964.927011 2743.998392 3609.327425 3580.530359 5333.383201 3142.349339 2098.662860 4250.829729 8897.078300 4352.189467 4172.226707 4619.993009 6336.313100 9313.148557 9581.453380 23561.436530 19936.288612 22692.732298 11454.456889 23942.679185 22309.049225 6622.713518 4306.845423 263.805293 8601.272249 3607.873823 4365.502795 3842.206086 4838.849993 4813.106114 -505.443691 -505.357162 -505.288286 -505.232627 5022.415050 5055.654493 5167.154909 5307.833926 3136.730658 4112.200976 1576.623408 5287.883541 3475.494873 5278.728857 4937.537168 3501.789062 -512.845912 5188.720268 4661.846474 2794.305582 2560.086293 4674.368874 3954.202673 3006.999422 2981.303635 2964.318738 3921.626764 1797.443052 5307.118082 3763.972331 2840.148166 11580.574439 11496.817994 5019.837659 7483.294183 4710.110574 14420.062101 16761.720410 17968.668245 3615.873717 25741.804049 24953.566181 9438.745461 4020.955445 -3462.667091 3814.856464 5010.495283 3754.084274 -496.806415 -496.768498 -496.738960 -496.715660 5013.642718 5029.667757 5047.736622 5029.239330 2523.146969 1893.984518 -268.725528 1321.222987 2860.339262 -521.795197 1467.477960 7171.985848 578.788641 -311.140703 3363.082753 3802.445501 2079.798580 21157.479534 1932.511911 2245.797767 3706.179729 2151.065425 2628.402066 2615.454032 2851.698858 5538.822556 5020.754381 3147.722496 2936.272642 2795.535180 4493.670333 709.085182 4950.875155 9534.400810 5473.212478 8413.992764 5997.041982 18824.010917 23972.830428 23570.278251 18143.968713 2934.685474 2434.514856 3895.390264 -488.037413 -488.054091 -488.068709 -488.081671 4998.564320 5007.688151 5060.490829 5162.611953 25880.061328 3946.739008 -21592.795721 76.347150 3979.228565 -890.724012 789.702333 1719.642497 2823.113171 -102.522722 2088.885017 4002.490726 4304.215592 106.044607 12474.529188 1139.372829 3466.282424 3329.597219 2760.925627 3041.414728 3622.664333 1952.617548 2671.279886 3129.839802 4057.739414 4593.899048 3635.844792 3398.588067 3361.134439 6217.735549 2721.312676 3878.418943 799.635206 4653.464202 9750.804307 12920.288902 20119.809016 11065.610964 20110.766335 -67.490891 -479.575882 -479.652595 -479.715713 -479.768445 4979.444498 4963.891942 4923.045816 4966.524801 205.130678 10792.671199 -726.515197 406.401333 1241.550398 1351.125933 -8485.775834 -7243.975935 520.112494 1248.512487 -878.524574 1168.948725 5466.753513 -122.770440 32213.674164 2819.783497 -46.072689 -7373.163273 -1096.372558 1195.167207 1199.566102 -1779.825597 3379.636876 1478.583148 815.034241 2057.016021 4316.679595 3441.789541 2363.096228 1754.874852 4046.807603 2690.820018 1830.848799 3447.820872 1874.780992 9318.826933 11123.111826 20855.197025 10706.946349 18229.748201 -471.899900 -472.040992 -472.156047 -472.251303 4973.309676 4954.956222 4866.802337 4715.642730 14732.558365 3270.113249 -394.778608 8920.895399 -1363.853086 -30859.921302 3798.200661 -8490.945257 974.467199 2722.386808 -3095.856539 -6576.740510 2652.414118 -3733.854061 -7503.136973 -15718.243516 -32168.905791 -932.015606 -789.282664 2084.116908 1792.528939 13476.936942 -116.561775 4515.496768 -8990.193726 2761.056912 749.852030 2507.532667 3473.723969 4179.556732 3549.652728 4237.464806 4255.488262 2360.329882 5025.067725 80.698095 4878.568523 1656.591597 4594.105759 7586.487601 -465.516142 -465.724239 -465.893262 -466.032639 4979.729375 4993.989191 5035.968415 5031.670302 -6433.541636 2015.276529 -9385.319374 2459.394457 2071.792864 -12667.672271 602.449435 3193.752168 -6365.312823 -3280.211596 -8216.147152 -100.657769 3664.862767 8842.680828 1733.137425 -3735.494177 1893.330957 -11169.480190 -3663.796437 12092.571028 -453.971531 4013.773987 799.519842 -2186.365209 2181.256777 4560.656494 1894.654448 -24182.761597 11402.922003 4906.959533 1895.613503 1804.288446 741.626887 3476.602276 -973.448779 2418.137851 2490.826776 1305.970106 1633.249580 1367.997809 -460.944642 -461.220010 -461.443126 -461.626653 4971.249819 5001.503964 5096.244041 5287.427803 78.708280 -26461.928854 -18075.689824 5940.061270 -9073.464875 -20505.103982 -28571.454658 -10022.924308 -18690.231329 -14970.539100 32085.554975 -27057.988952 -15497.486135 -8623.663544 21396.606085 32203.622390 -23917.993615 -21592.795721 -32169.185985 -1724.368594 -4514.444473 1570.611169 6401.540281 -940.560242 -7243.975945 -7176.073198 -2548.207786 -32.309577 -858.289385 -13222.631499 1930.728161 828.469299 3009.253386 2955.136114 6640.065205 1838.220277 -92.460317 79.843329 3183.187622 6762.953370 -458.698726 -459.038698 -459.313661 -459.539427 4936.201812 4955.362993 5021.799452 5184.906644 -459.260767 -459.659276 -459.981112 -460.244974 4891.070755 4867.892511 4843.470379 4890.788749 -463.054921 -463.502237 -463.863030 -464.158454 4875.521652 4804.781079 4558.340307 4225.746965 -470.418517 -470.901224 -471.290112 -471.608165 4920.746708 4872.127673 4770.777763 4536.389796 -481.574168 -482.075426 -482.478814 -482.808353 4998.863893 4956.638768 4885.957453 4855.565680 -496.604836 -497.104938 -497.506951 -497.834987 5083.044017 5045.389381 4873.685920 4487.698432 -515.434107 -515.911303 -516.294449 -516.606695 5145.402432 5164.360695 5257.071293 5264.848121 -537.813622 -538.245167 -538.591176 -538.872732 5134.718591 5150.076388 5235.387149 5199.056909 -563.319154 -563.682494 -563.973272 -564.209397 5054.102288 5035.585696 4996.770999 4796.163451 -591.356126 -591.630138 -591.848757 -592.025676 4942.216215 4903.012712 4880.036185 4954.273144 -621.174629 -621.340808 -621.472449 -621.578121 4838.265746 4755.869080 4572.513574 4448.243679 -651.893184 -651.936680 -651.969469 -651.994259 4791.291046 4710.052776 4485.716799 4056.466962 -682.529836 -682.440276 -682.365931 -682.303137 4798.202952 4770.096039 4752.959709 4713.142005 -712.038601 -711.810619 -711.624879 -711.471076 4804.817013 4789.846018 4826.709979 4905.675426 -739.348962 -738.982429 -738.685229 -738.440413 4780.462703 4735.328870 4617.923876 4246.319174 -763.406008 -762.905947 -762.501357 -762.168890 4724.219487 4673.162837 4603.734394 4696.693081 -783.208911 -782.585139 -782.081074 -781.667447 4637.336602 4567.487731 4427.331350 4208.500434 -797.845763 -797.112298 -796.520040 -796.034488 4545.985054 4488.768771 4413.856694 4406.221361 -806.523201 -805.697494 -805.031084 -804.485085 4470.022086 4426.135235 4427.334568 4769.401687 -808.589776 -807.691847 -806.967389 -806.374104 4434.585853 4407.739768 4291.992434 3955.161315 -803.552558 -802.604093 -801.839036 -801.212720 4447.680880 4514.254067 4756.969314 5211.055259 -791.086957 -790.110441 -789.322877 -788.678313 4479.325672 4620.190690 5055.653665 6017.015938 -771.040203 -770.058119 -769.266152 -768.618131 4521.909739 4721.645192 5219.660567 6252.717485 -743.429227 -742.463389 -741.684591 -741.047477 4588.624238 4906.410601 5799.502909 7478.110306 -708.433989 -707.505012 -706.756003 -706.143388 4649.519215 5046.350323 6200.144618 8582.158867 -666.387393 -665.514332 -664.810484 -664.234944 4690.766679 5107.368518 6206.516173 8512.769128 -617.763032 -616.963168 -616.318441 -615.791408 4711.977918 5151.433183 6301.954341 8602.189031 -563.161928 -562.450728 -561.877629 -561.409354 4691.483582 5109.421080 6206.801619 8126.356454 -503.299412 -502.690613 -502.200268 -501.799882 4620.860684 4951.870618 5723.248608 6871.966694 -438.993090 -438.498913 -438.101236 -437.776884 4532.778834 4778.034442 5451.373513 6667.941287 -371.152735 -370.784191 -370.488129 -370.247173 4459.791696 4584.515100 4719.966073 4863.234793 -300.772717 -300.539981 -300.353814 -300.203079 4443.470617 4579.496719 4903.902972 5391.064908 -228.927391 -228.840225 -228.771904 -228.717950 4443.524714 4562.853455 4844.971454 5470.573038 -156.769701 -156.837890 -156.895391 -156.944801 4444.832802 4538.388317 4609.967432 4390.004195 -85.533020 -85.766805 -85.958475 -86.118138 4433.844638 4525.448534 4629.510608 4651.449053 -16.536103 -16.946591 -17.281476 -17.558855 4391.455804 4472.796594 4502.387484 4298.568767 48.809140 48.209615 47.721473 47.318099 4320.453904 4396.144511 4655.512734 5034.317008 108.987510 108.185075 107.532381 106.993717 4237.695123 4227.960533 4139.310129 4240.157793 162.368593 161.347590 160.517581 159.833139 4200.872748 4144.151761 4061.694139 4124.068903 207.193757 205.936537 204.914768 204.072714 4229.440544 4138.753159 3781.087835 3186.906483 241.562768 240.049469 238.819534 237.806484 4306.004233 4290.671263 4335.877322 4558.506506 263.420572 261.628712 260.171677 258.972308 4364.798766 4376.236866 4429.183660 4599.343332 270.544122 268.447641 266.740768 265.336937 4375.487276 4373.320553 4342.879856 4276.841939 260.527809 258.094864 256.108840 254.477689 4356.678855 4338.249008 4299.941129 4096.072169 230.763735 227.952082 225.645489 223.755785 4332.017956 4308.200811 4208.296092 4114.606908 178.409662 175.157888 172.467549 170.273803 4320.449467 4325.961588 4463.003445 4948.419763 100.333128 96.545583 93.373252 90.809977 4326.596077 4273.002986 4147.927981 4032.412156 -6.982416 -11.461086 -15.256424 -18.265078 4393.161860 4336.968888 4057.839132 3183.919135 -147.569275 -153.017741 -157.583129 -161.031388 4497.385176 4532.248114 4702.188892 5209.302846 -326.038537 -333.187527 -338.450000 -341.795628 4561.415017 4611.755317 4683.198724 4725.723689 -546.913963 -559.173364 -563.582588 -563.824160 4561.302170 4586.076564 4757.564065 5141.943952 -814.878038 -848.097972 -839.736382 -824.329475 4522.895758 4432.420628 4049.970332 3421.868133 -1219.525961 -1285.366292 -1155.930104 -1102.132754 4530.572426 4442.739379 4217.336478 3835.437878 -2381.328612 -1680.418672 -1437.887766 -1351.088096 4608.233648 4549.184378 4306.997025 3954.433369 -2571.847405 -1814.744250 -1611.885185 -1529.855240 4751.084474 4768.922580 4874.377480 4850.641266 -1919.798356 -1799.473747 -1686.779625 -1635.108321 4905.876139 4935.904116 4838.791937 4272.364983 -1782.888062 -1751.033169 -1714.047745 -1694.907138 5037.127160 5116.547415 5400.334246 5739.046491 -1705.746541 -1719.191213 -1736.242435 -1746.820973 5103.682128 5111.783454 5021.758359 4424.949131 -1627.957228 -1701.587429 -1786.104171 -1830.716379 5127.919569 5140.460526 5092.225691 4964.117868 -1482.946827 -1711.156866 -1909.445952 -1993.602068 5101.708090 5118.781772 5384.339134 5942.137614 -1384.700602 -1909.205273 -2222.659253 -2271.779804 5036.287170 4905.458861 4560.420816 4083.422308 -2720.969749 -2748.682013 -2689.278933 -2615.617278 5034.458242 4864.455565 4481.357813 3961.016679 -4345.559101 -3581.216793 -3026.479381 -2887.179602 5125.294395 4955.864575 4684.943846 4582.811983 -3781.954000 -3405.152809 -3121.584465 -3024.237463 5322.449556 5113.308753 4793.819765 4476.121257 -3281.839306 -3199.948479 -3099.699169 -3044.605412 5681.413882 5389.294263 4754.808414 4137.434808 -3095.236285 -3063.112725 -3019.721697 -2993.282432 6294.172122 5990.799298 5330.547383 4418.322908 -2949.854891 -2936.626154 -2917.724304 -2905.677019 7183.540433 6904.927707 6205.883794 5091.664758 -2823.523723 -2817.606448 -2808.687464 -2802.963403 8324.008734 8136.878692 7740.207225 7031.394645 -2710.860833 -2706.933800 -2700.721414 -2696.928011 9655.078172 9550.378907 9341.700117 9199.436444 -2614.720127 -2608.018475 -2598.844665 -2593.864340 11127.663477 11070.543443 10875.159142 10385.690012 -2544.848539 -2525.066098 -2504.826117 -2495.928983 12722.992935 12733.707802 12796.949796 12470.532835 -2520.064423 -2452.063125 -2415.079947 -2401.586388 14385.228760 14437.715990 14372.859092 13952.808314 -2437.036245 -2351.884037 -2317.391472 -2308.918812 16038.770989 16277.844996 16809.830474 17213.707438 -2016.818669 -2227.953408 -2223.030181 -2222.186181 17516.731439 17818.939141 18921.972939 20863.080447 -1861.561828 -2230.644573 -2157.206981 -2143.045562 18779.147551 18823.218316 18952.679794 19429.269418 -2599.289871 -2222.366855 -2090.108800 -2050.808322 19980.648394 19867.052572 19146.234370 17543.722150 -2729.791810 -2074.290766 -1959.686231 -1914.296196 21152.306312 21250.892853 21424.416812 21281.166927 -1930.201136 -1825.298010 -1753.218019 -1721.520207 22077.961882 22359.810167 23105.101347 24045.450825 -1539.819005 -1518.725498 -1496.147964 -1484.310194 22616.603326 22967.240538 23872.978031 25173.208993 -1176.055603 -1198.364219 -1217.711457 -1225.881260 22768.674547 23072.133119 23874.775347 25503.339493 -756.586161 -877.709877 -943.812860 -971.680674 22650.687944 22815.585853 23090.618140 23669.301113 25613.109356 27366.215683 19516.106287 17568.882886 21267.301065 18507.787691 13891.892280 8891.807379 9510.651693 8345.491508 7682.431392 6248.384524 6038.773431 5227.870263 4148.612282 3006.842313 2649.220764 5487.923718 3399.102238 3723.121226 6250.101360 5474.237032 4904.920353 4279.350638 3780.136121 2803.794733 2319.962161 2522.445793 2450.916387 2488.946135 2704.169825 2692.866561 3336.131850 4133.587266 5470.883670 5629.517239 3805.118202 4468.082138 4984.921230 1801.339327 1871.887225 5770.616266 7575.396869 5650.213583 3151.361533 2266.251134 1605.798419 1025.107823 521.759488 20.475381 -381.877106 -593.973784 -702.234876 -746.326576 22446.385507 22540.733466 22677.691285 22809.758940 23374.819599 23562.175758 19639.188922 17993.829249 18662.987229 17839.674486 15934.015109 11451.291471 9579.874160 8708.498052 7584.385412 6596.850519 5922.586785 5032.961889 4187.542513 3618.597912 3454.324081 3872.600343 3630.547404 3849.663978 4455.878502 4319.077127 4046.082602 3636.064860 3204.073757 2732.604122 2475.425782 2387.303927 2320.742593 2337.270622 2453.732485 2674.531381 3059.207394 3568.400654 4040.983489 4233.055008 4105.789016 3894.950879 3549.826068 3070.684591 3198.897793 3793.450084 4155.650066 3871.368456 3022.574809 2229.499663 1573.913238 1028.870526 559.750045 152.600944 -173.318232 -391.624728 -516.860349 -569.754692 22278.977781 22342.936709 22437.780478 22497.541498 22304.913477 21540.228208 20129.258474 18841.742479 17790.210975 16380.012887 14459.519473 12224.395360 10438.992813 9018.472104 7808.415706 6757.591663 5839.693283 5025.939885 4351.088387 3894.576791 3693.139474 3657.786188 3687.356013 3797.891317 3907.831630 3878.940177 3701.961712 3427.629140 3107.544676 2799.021064 2556.072733 2397.571763 2318.031043 2320.980861 2417.268748 2616.038690 2915.999208 3273.871100 3593.828437 3767.929208 3762.201536 3625.246631 3400.475039 3194.257595 3172.907729 3311.349625 3361.508787 3130.493837 2649.359939 2075.615526 1521.343555 1025.219695 593.481204 228.159378 -62.306984 -270.224698 -397.710173 -453.557691 22202.575916 22251.873537 22290.514856 22231.818598 21907.236787 21162.492275 20064.737951 18842.285722 17539.323769 16012.081155 14222.425573 12350.466631 10640.925317 9173.506686 7915.351645 6827.382014 5885.001572 5080.820172 4437.514297 3991.119817 3747.933528 3661.322949 3669.736696 3729.096503 3773.302340 3730.605865 3579.842245 3344.805559 3067.882842 2795.922219 2569.172235 2409.914511 2326.419510 2325.266201 2414.095770 2595.891975 2857.931985 3158.087614 3425.305904 3587.566080 3612.339566 3516.703758 3350.673574 3196.447011 3131.018683 3135.159012 3086.217091 2871.635471 2483.113583 1996.656626 1494.747735 1026.682638 613.526092 264.485426 -13.624290 -216.249068 -343.295325 -399.827176
</DataArray>
<DataArray type="Float64" Name="Velocity" NumberOfComponents="3" format="ascii">