<VTKFile type="PolyData">
<PolyData>
<Piece NumberOfPoints="2064" NumberOfVerts="2064" NumberOfLines="0" NumberOfStrips="0" NumberOfPolys="0">
<PointData>
<DataArray type="Float64" Name="Pressure" format="ascii">
 25554.729133 25646.271396 25781.825113 25884.678902 25860.584237 25645.526534 25201.788001 24513.021548 23637.391760 22687.620706 21719.494577 20687.256564 19548.786697 18345.890783 17197.775778 16213.833148 15391.264615 14625.306312 13830.554272 13007.529572 12210.472293 11487.109254 10818.148339 10154.157113 9498.872938 8891.834350 8363.145258 7910.878276 7505.364228 7120.531651 6746.717489 6383.241381 6031.445718 5692.412364 5366.726355 5054.631945 4756.181070 4471.329458 4199.988948 3942.045994 3697.355852 3465.720581 3246.857311 3040.361784 2845.671527 2662.033485 2488.482975 2323.845397 2166.781885 2015.920158 1870.150074 1729.214864 1594.689298 1470.966074 1364.902164 1283.218657 1229.924634 1205.348457 25582.793430 25689.406493 25869.133651 26026.143520 26031.713823 25846.045445 25449.478309 24745.749170 23785.896665 22790.676712 21864.484599 20851.469912 19663.125436 18364.550423 17144.533452 16186.771451 15463.885961 14749.807684 13915.551042 13003.332466 12114.173644 11385.449091 10771.573385 10115.034065 9434.585219 8807.692234 8282.884813 7865.293036 7489.169609 7116.984699 6746.947052 6384.703823 6033.479688 5694.756607 5369.232374 5057.218128 4758.805799 4473.972504 4202.639165 3944.693443 3699.986896 3468.314932 3249.386274 3042.787144 2847.944437 2664.092196 2490.246721 2325.198056 2167.530856 2015.699897 1868.218949 1724.120397 1584.113778 1452.757448 1339.488017 1253.673096 1198.975399 1174.226627 25563.396111 25710.884046 26014.938668 26337.511447 26385.039658 26240.476162 26032.626807 25332.045762 24087.005038 22970.178451 22267.966737 21305.511243 19945.173113 18417.895790 17051.665125 16173.664958 15688.343304 15059.649878 14119.827115 13003.452612 11821.261535 11104.358183 10724.941193 10066.260021 9297.720216 8605.605481 8073.555505 7769.968162 7473.584662 7116.230574 6747.349226 6385.646480 6035.046259 5696.687001 5371.352388 5059.432673 4761.066191 4476.254567 4204.929841 3946.982590 3702.262252 3470.559029 3251.574488 3044.886163 2849.910232 2665.865686 2491.742893 2326.278462 2167.935320 2014.880444 1864.944681 1715.584017 1564.288581 1413.943537 1281.657786 1188.039698 1132.385378 1108.170429 25426.839717 25615.588303 26089.522019 26675.883684 26737.781891 26731.743609 27077.929768 26535.844491 24398.271386 23082.508200 23175.838907 22242.420084 20408.309312 18687.408411 17741.383143 17005.313943 16043.374495 15091.107882 14202.754731 13065.164125 11426.983911 10769.065092 10693.647727 9890.284935 9071.720285 8368.527028 7654.229457 7569.901024 7433.379061 7111.019768 6745.581952 6386.273980 6036.466913 5698.461815 5373.304549 5061.475004 4763.153629 4478.363887 4207.048187 3949.100275 3704.368163 3472.637724 3253.604361 3046.838157 2851.746442 2667.536609 2493.180492 2327.378005 2168.508366 2014.532035 1862.736483 1708.996603 1545.376232 1350.429944 1176.285311 1080.077950 1029.448560 1008.166224 25117.499448 25288.316323 25756.787219 26407.394422 24428.213201 16968.387071 21576.788761 18318.501985 21830.226360 4833.630040 15221.990651 11385.210651 28838.525623 9599.160025 20208.506277 28255.785963 24174.736575 17071.192319 20467.264505 14358.318135 22999.014927 23978.762638 11798.574642 18504.564013 19470.385803 27749.645308 13530.424818 21637.686052 15948.721956 15641.849434 14637.300800 3141.894482 16463.188547 13414.066845 16100.276110 24949.079072 3413.168347 20501.507303 18121.574882 16004.869537 -6131.386875 17794.334259 17732.452191 19377.263874 989.243236 929.610660 895.372242 880.175373 24657.342857 24738.595778 24953.574234 25328.173478 21978.238409 13131.050988 14683.765923 9106.236679 15410.167223 13849.303788 11484.307241 13760.494617 14039.541133 14432.106295 10441.570479 13255.194440 13896.299701 11788.972361 15676.079197 12589.003858 16661.614272 26674.308751 11482.509389 11756.326104 13683.856953 16864.139394 14059.962892 19119.276539 15026.317651 17638.049248 15277.602049 13949.488497 21159.451954 16989.873028 16175.255534 17708.238658 13834.682515 15478.073171 21254.041339 20733.668885 18748.378465 17288.996137 19202.927774 17416.550414 775.434101 759.086933 742.561631 734.350112 24146.156067 24153.355615 24163.278576 24197.206000 11222.664486 10505.788304 11902.625551 9629.993936 8625.532928 13875.895521 16321.765467 15071.505085 13533.612742 14412.652620 9383.041665 16076.144413 9636.524954 11790.748228 15638.996183 1929.391900 9405.899992 14471.697210 13492.336624 11641.260297 21203.435612 22004.899976 14838.348871 12192.671567 14345.362526 12725.119177 14343.987735 2405.984931 22897.646758 14931.355300 17831.417383 25223.459894 1347.356181 17558.417814 11458.949547 21510.923335 24162.023148 14876.768029 22404.496065 27782.156150 594.738035 590.897450 585.639009 582.844373 23667.579660 23653.259494 23568.018029 23508.206051 12010.187710 14866.295413 10331.266214 13422.764851 13435.592438 8601.828885 15734.326773 15573.029438 15950.505892 8794.824481 9042.767977 10990.845962 9035.951820 10401.790028 15492.704820 13389.551170 13089.432819 11949.886067 9251.023091 15169.734460 13780.289830 10249.441737 11390.921785 14754.465746 21111.957033 15851.760942 14934.104000 10176.333171 24644.196712 15538.916064 23451.946152 14871.294009 23156.151114 2855.742773 16079.315473 1891.714271 25181.160639 2052.228285 22951.849957 19116.874990 433.725643 435.288706 436.228266 437.053136 23224.506541 23291.834097 23442.514384 23641.535500 8408.845252 15214.716728 12556.863250 9589.467825 16174.959798 26468.530098 14990.123512 13414.686615 6217.749314 16351.942099 9427.555197 23207.724253 16549.253121 7868.290536 11669.284072 13306.011076 7377.782448 11684.243553 11662.043179 12663.900518 11082.990975 13883.802039 8679.286975 16980.392329 14481.055632 11267.282698 25625.793368 11239.341038 13767.717001 11463.873404 15431.222565 16016.875092 922.684798 12111.306588 11545.802174 14541.349673 13837.365888 2769.535668 13224.788035 7375.302428 292.890536 298.057409 303.157647 306.536683 22728.029667 22892.620402 23301.903502 23571.044052 6550.763244 14765.396059 4320.978151 3505.774878 4302.744476 4982.881517 14264.142035 7016.925414 11543.865362 4383.588841 10802.580528 3357.408790 10090.690734 8936.314286 9553.702425 2095.155795 6564.074503 12132.870400 9366.223271 17544.758027 10263.438883 12389.344065 11092.923196 4267.496314 10060.868075 13960.205161 1214.618026 12249.600559 10617.603023 11886.985291 17744.281111 11443.521260 14541.354994 11693.237705 24095.541179 13626.090042 14874.106214 16049.169874 12749.920161 23407.300853 176.217675 184.868166 193.486852 198.806584 22099.470559 22294.668711 22761.439796 23069.891656 4223.779144 7793.937961 3347.056978 3918.078336 8377.813419 8755.474102 5930.267409 3363.853850 4019.378665 3731.172573 6920.938439 3757.764131 5120.427111 9498.790711 3923.273815 4028.524419 3917.936255 8655.575736 7271.138163 4479.145238 7321.362590 -1849.340454 6961.624851 12978.022897 16319.867908 11427.681953 12762.160760 -5682.300541 8764.649163 13958.450614 11836.330088 9532.688858 8469.543427 15207.592136 14562.526197 10121.753162 14553.556477 25263.948859 11338.284617 9272.000460 87.455840 100.625016 112.367106 118.715539 21336.314072 21513.375969 21876.163908 22117.268918 3139.597013 4342.466195 3273.621688 6363.434770 2979.484643 2560.640211 6701.086646 3507.123837 4045.124246 8724.491967 3304.151767 3028.581588 5875.980052 7751.798093 5625.547477 3041.846013 5464.526342 3789.107757 3028.726943 4179.637812 8406.108558 3042.552436 3095.357979 11735.222998 9892.376009 17286.513698 5845.113018 20655.955058 7499.041986 20072.155276 12636.032616 20926.106064 16429.190091 12034.141876 19647.111790 -9356.665133 9613.106281 13904.302706 9914.764724 13652.368168 33.351321 50.905194 61.425452 67.324061 20482.123214 20641.089108 20982.763432 21297.695614 3060.725188 4178.181000 5293.436314 2995.856215 3135.769446 7345.752070 3377.245405 3503.421906 2996.050028 4625.962295 3836.268234 3678.040390 7282.362578 4133.542816 3946.596342 9246.149186 3928.932565 3544.268316 6637.102832 9033.264481 4355.185581 4441.745936 9357.604813 3425.447353 5056.077321 12936.892048 24453.355364 5324.724477 6296.191101 15668.572955 13370.511497 8545.580857 9729.315280 12814.636009 14086.448262 10392.233662 10814.530590 11312.184397 14479.753760 26447.260756 21.968070 29.570466 36.966094 41.367886 19584.840072 19703.486742 19972.041423 20290.539855 2945.920499 3208.345230 7609.515963 5058.687382 3136.223407 7147.996549 8446.230067 2977.610356 2726.245280 3103.949328 5785.217147 3476.702008 2910.477484 2922.937972 2940.439120 3102.001184 4128.448625 7908.156546 4262.660841 3532.420414 2903.684817 2747.907925 8049.200759 6757.788138 4499.379300 7817.031135 2783.268704 8733.349002 11136.433769 13449.888364 7435.370154 7061.438590 4089.914923 9286.935526 16009.087829 14825.981686 1347.356181 24338.582951 22650.291874 14556.991686 23.392917 27.482981 31.761941 34.527866 18704.045694 18782.335223 19015.637286 19393.745342 9556.905106 3212.938750 8500.738883 8142.690933 8312.496039 8937.888864 9503.434188 8201.628082 3942.200763 9283.058243 8932.164975 7137.984718 3226.278719 2816.363389 4385.484196 4285.687700 3075.319844 7381.638011 3937.045554 3325.942115 2714.504898 3068.800863 2719.262237 8641.092402 10655.795973 7804.540387 2798.935403 7734.815840 2843.480388 4352.319426 4339.940265 5250.331605 8200.785448 5274.551793 8360.008322 8522.201248 10180.076880 16842.971898 13690.600900 5747.809774 33.871615 35.863432 38.064055 39.527461 17893.251946 17908.908664 17938.326149 18000.169952 8380.960204 3000.241193 8892.104227 13707.942106 14552.137162 10969.958813 6369.060682 8402.514645 6858.799475 8579.674145 13720.906488 3305.343100 2926.019673 8368.726910 5910.261983 9383.440193 6417.464421 7880.964992 8769.440972 3139.903222 8393.167501 3066.921455 3135.685851 3194.137215 13475.341820 3138.423286 3486.142946 8593.479696 4025.506249 4322.476975 2936.048235 4007.739369 6338.648498 4615.591677 4106.298121 6529.758907 5568.342079 13374.461195 6436.441603 9067.457141 47.618350 48.289758 49.161463 49.720666 17198.398390 17179.385729 17127.516237 17071.992608 8326.951135 8582.144762 9392.976929 7558.007878 3089.263560 9301.332891 3663.832583 9492.119584 9545.475222 7672.793419 7259.575168 2700.215354 9004.848415 9724.594713 23111.190388 7368.856490 13186.190470 5532.408306 9119.572676 14589.806701 11774.256223 8945.527375 7381.939560 3356.531538 9342.058106 3803.212881 4035.885779 2998.247625 8570.482216 3043.878223 3220.276290 6938.056398 8165.353580 7944.584415 8717.967918 7463.817493 4124.122751 3449.223410 8766.543137 12083.249339 59.952751 59.791770 59.841234 59.813769 16632.894668 16597.468510 16497.609141 16322.958615 3143.543499 8162.695217 5781.277173 9962.919022 8901.708067 3249.198440 7166.698374 10318.695102 12201.922936 3907.413276 6039.776453 8060.819817 8483.501388 8429.894424 12376.287289 8915.237651 10368.717013 8665.679440 7313.099285 8783.787060 3142.188473 10399.098237 14297.318107 9406.713072 9986.470422 8172.590649 4086.229548 13376.533208 3163.082503 497.640858 3394.127419 8371.336041 8001.851980 6900.938079 13800.391357 12153.631776 3624.598864 3677.419151 6379.869676 4086.829953 67.501671 66.844406 66.411636 66.030007 16194.387007 16163.468927 16093.923357 15892.429943 8575.264862 8347.671567 7502.249532 7885.671062 4177.510431 14161.919332 12330.554624 3171.477509 4537.199216 14043.250451 15027.850744 8395.445926 8350.616371 2708.214432 2786.140578 8475.143292 13450.830373 9282.196557 18155.556060 3486.192961 10445.566712 8488.278262 7813.144044 12779.755796 12947.396587 8454.023280 8628.376240 12883.942928 4463.340996 8389.570001 10659.099654 6425.480942 8714.739963 6109.069206 8685.268434 4391.656360 8663.575190 8417.229465 6681.267747 8410.908104 68.176736 67.261716 66.577103 66.007704 15874.567051 15839.284920 15728.145745 15386.150363 3021.090854 12120.335784 14329.861157 8956.778251 7774.806289 17644.441309 3572.607825 5574.959587 10868.448740 6530.599642 9132.835373 8065.705642 16986.266194 3736.601515 6433.813063 3401.694783 8660.946762 2793.775214 4041.618675 3577.806851 4801.079130 12357.941809 961.105830 2839.746210 16124.920728 21873.372536 3911.914209 15708.375231 8835.187103 4294.883098 9631.023144 13327.554106 20368.837080 8823.901954 9230.127296 8617.792608 9199.949477 3736.084770 4020.296843 4287.888457 61.006678 60.002644 59.222401 58.582377 15675.738605 15652.558378 15511.551001 14997.721112 12815.570114 6865.020688 4968.741776 13532.941145 6113.096045 8639.686999 3667.372589 17562.065265 15661.858111 16867.545435 19638.816939 9182.787278 3140.639720 8249.332291 14129.313260 6673.932947 9054.080817 26755.070448 9963.592500 3408.040343 4303.009859 13590.600598 7255.623800 3036.703966 8195.402059 12585.844479 -2120.826312 7164.345982 24376.242328 12933.603964 23606.895940 7880.937821 12030.030308 11956.172261 2993.460411 12765.082731 7441.179741 9180.313249 3409.044562 3142.596105 45.907033 44.929610 44.157522 43.526783 15574.234492 15627.251670 15716.155875 15430.290700 7197.413439 8437.118839 6516.622306 13897.557741 12969.218772 12785.306155 6210.704800 15296.883361 13399.829724 11878.271254 13682.714341 4232.231867 8104.878913 9279.955110 23058.083841 13659.648943 14707.610911 5818.194821 20857.985993 9193.865367 8444.912842 7505.259760 10117.982100 8769.478803 5392.766861 8980.568982 13405.622858 13601.277501 11037.842585 13444.110207 11721.229129 13926.470349 3008.838988 19463.400047 13634.427643 16356.756957 11089.022296 3955.280307 16976.615422 3093.956586 23.435987 22.559351 21.860833 21.290687 15485.919903 15557.736156 15673.573986 15529.914899 1325.915964 8552.215473 8033.678130 2767.463154 4288.567158 15425.628516 2836.726605 22042.926274 7648.006667 -1775.278940 17399.977952 19697.664331 14416.754664 3511.888201 13897.539903 10464.677419 10727.511796 11053.968177 13401.600943 3160.969084 2844.527398 9831.223640 12188.108467 22448.954643 6930.179455 13813.258678 16612.896470 15811.666406 14042.649924 8057.621229 13729.872474 8980.131886 13327.692957 15264.274129 6587.603383 11222.420161 8173.582609 11045.219117 19027.029732 3375.050124 -5.433166 -6.167041 -6.755059 -7.235246 15356.510613 15401.300278 15448.917945 15362.786173 10425.444651 14291.479468 13322.890421 8050.066511 9221.514131 13612.667070 14086.807836 15575.775069 14441.660962 27097.753596 13343.901092 9348.142495 16115.609123 10308.776909 13658.569875 20405.913779 22918.814718 9798.991129 23327.179217 6319.693300 14821.713382 3281.661800 4201.488682 6637.574728 487.970348 15415.361922 13547.214494 14093.304748 8281.305050 5308.483812 17516.920503 8725.400039 19545.464818 27463.223952 13712.063141 13409.877348 9073.092396 14013.822436 8574.269297 8590.264915 -39.506040 -40.079550 -40.541067 -40.918419 15174.998214 15190.701050 15186.788392 15128.244924 -77.520496 -77.933654 -78.267555 -78.541096 14939.772108 14935.653173 14893.324022 14834.372474 -118.258809 -118.523526 -118.738672 -118.915489 14647.435665 14653.230946 14704.695449 14792.513514 -160.622300 -160.757687 -160.868984 -160.961093 14293.614974 14262.360718 14228.069431 14378.347861 -203.674256 -203.702937 -203.728286 -203.750177 13931.665695 13872.455121 13760.399722 13947.850252 -246.657828 -246.603193 -246.561232 -246.528032 13629.415065 13604.088224 13578.143783 13839.368324 -288.995478 -288.879771 -288.788304 -288.714496 13406.691471 13444.435861 13542.336889 13924.896177 -330.275908 -330.119019 -329.994016 -329.892619 13236.266984 13369.603721 13651.381416 14173.834498 -370.233440 -370.052258 -369.907320 -369.789437 13038.729973 13287.794634 13874.771107 14696.442226 -408.723774 -408.531968 -408.378130 -408.252789 12723.604766 13020.623798 13762.906605 14852.913558 -445.699041 -445.507138 -445.352923 -445.227109 12299.100010 12502.301044 12873.914710 13799.471203 -481.184136 -480.999797 -480.851428 -480.730256 11914.080039 12112.450667 12468.574876 13317.524177 -515.255590 -515.083996 -514.945702 -514.832654 11651.160650 11913.007680 12483.121270 13412.709965 -548.023610 -547.867893 -547.742250 -547.639458 11480.596445 11770.142013 12368.315513 13200.060740 -579.617494 -579.479167 -579.367437 -579.275960 11345.005940 11639.729377 12211.294972 12901.348035 -610.174291 -610.053645 -609.956102 -609.876184 11185.765939 11452.755335 11923.083533 12377.250316 -639.830420 -639.726875 -639.643081 -639.574383 10963.727669 11165.303016 11499.014961 11745.992326 -668.715820 -668.628211 -668.557253 -668.499041 10689.082356 10801.835304 10912.121249 11019.447662 -696.950171 -696.876988 -696.817664 -696.768968 10421.073865 10516.577899 10611.779010 10645.820876 -724.640774 -724.580335 -724.531302 -724.491028 10177.551767 10302.431788 10530.906765 10629.760068 -751.881645 -751.832228 -751.792104 -751.759128 9921.303112 10008.749475 10089.554545 10065.546434 -778.753504 -778.713436 -778.680877 -778.654103 9642.305368 9666.761769 9570.369030 9432.856246 -805.324355 -805.292071 -805.265817 -805.244213 9361.756452 9350.118799 9189.307924 9066.689424 -831.650429 -831.624502 -831.603401 -831.586027 9113.670002 9135.006766 9161.699387 9236.697344 -857.777317 -857.756475 -857.739499 -857.725511 8910.187813 8931.297631 8932.197313 8984.928849 -883.741174 -883.724297 -883.710540 -883.699197 8773.787438 8809.897066 8841.353192 8842.724850 -909.569892 -909.556007 -909.544681 -909.535336 8699.073310 8775.847628 8951.535693 9059.279896 -935.284210 -935.272477 -935.262902 -935.254998 8642.920029 8729.572596 8942.342795 9122.618556 -960.898709 -960.888407 -960.880000 -960.873056 8579.020230 8628.979657 8733.292665 8858.594139 -986.422693 -986.413206 -986.405464 -986.399071 8523.906650 8530.578351 8527.292184 8603.311793 -1011.860951 -1011.851750 -1011.844247 -1011.838050 8509.282775 8492.745730 8431.968212 8487.400973 -1037.214408 -1037.205040 -1037.197406 -1037.191105 8552.013511 8547.026668 8539.661998 8644.353400 -1062.480669 -1062.470743 -1062.462663 -1062.455996 8633.432673 8658.585561 8742.901257 8917.814785 -1087.654481 -1087.643661 -1087.634859 -1087.627602 8710.854383 8757.561833 8908.525306 9121.659347 -1112.728121 -1112.716112 -1112.706351 -1112.698308 8750.773430 8778.253267 8858.004828 8983.524698 -1137.691714 -1137.678260 -1137.667333 -1137.658333 8758.803954 8763.653145 8766.372448 8761.474263 -1162.533512 -1162.518390 -1162.506115 -1162.496008 8748.842355 8748.172691 8716.756038 8618.396994 -1187.240131 -1187.223144 -1187.209361 -1187.198018 8716.099080 8752.818591 8816.669401 8699.020444 -1211.796752 -1211.777728 -1211.762298 -1211.749605 8615.852950 8703.731396 8951.541126 8962.384184 -1236.187307 -1236.166096 -1236.148899 -1236.134754 8394.243343 8448.946604 8609.679679 8659.377431 -1260.394646 -1260.371118 -1260.352047 -1260.336366 8069.897630 8060.389939 8062.585342 8068.157208 -1284.400686 -1284.374730 -1284.353695 -1284.336404 7707.553415 7646.851310 7576.089443 7597.838658 -1308.186559 -1308.158082 -1308.135008 -1308.116043 7379.137624 7249.824483 6961.779776 6852.082695 -1331.732752 -1331.701677 -1331.676500 -1331.655811 7162.647879 7054.518119 6780.776883 6578.823327 -1355.019240 -1354.985505 -1354.958172 -1354.935717 7045.061167 7060.040730 7141.944525 7144.664251 -1378.025623 -1377.989178 -1377.959641 -1377.935383 6902.945562 6992.730685 7284.411403 7497.101114 -1400.731266 -1400.692062 -1400.660269 -1400.634169 6645.412308 6692.082871 6793.670732 6838.868125 -1423.115444 -1423.073419 -1423.039280 -1423.011278 6293.786302 6308.373068 6372.535174 6300.271584 -1445.157516 -1445.112549 -1445.075874 -1445.045845 5891.910311 5838.943887 5720.879452 5540.403943 -1466.837163 -1466.788967 -1466.749308 -1466.716956 5511.527290 5417.579472 5181.341400 4885.537533 -1488.134772 -1488.082644 -1488.038913 -1488.003516 5207.580691 5120.671292 4910.268265 4591.671396 -1509.032166 -1508.974396 -1508.923962 -1508.883759 4985.775159 4922.618731 4807.957514 4603.001050 -1529.514178 -1529.446656 -1529.383186 -1529.333893 4823.044556 4780.359257 4723.349801 4557.580268 -1549.572143 -1549.485198 -1549.393493 -1549.324608 4695.723931 4640.783758 4520.089075 4303.786187 -1569.211712 -1569.083356 -1568.926986 -1568.812251 4609.558100 4547.767687 4389.980668 4165.560166 -1588.469400 -1588.253637 -1587.944892 -1587.715865 4566.085907 4532.748734 4463.452429 4292.943642 -1607.440262 -1607.065630 -1606.388159 -1605.853729 4535.493593 4529.808101 4555.135884 4453.598393 -1626.290744 -1625.797197 -1624.172377 -1622.752805 4489.377264 4444.900056 4318.841845 4129.620956 -1646.214089 -1645.849951 -1641.128163 -1637.054691 4458.239365 4402.786747 4259.289566 4111.202463 -1683.372845 -1674.594433 -1655.660901 -1644.990147 4461.228590 4432.298892 4376.266216 4328.362776 -1732.417580 -1698.305949 -1655.976659 -1639.100380 4478.366764 4487.199193 4541.274559 4564.902858 -1722.594109 -1671.282176 -1628.869770 -1613.141750 4473.337415 4486.684247 4535.745750 4528.949711 -1624.867856 -1599.763990 -1578.205955 -1567.782555 4436.056962 4425.927157 4397.065924 4345.691053 -1531.598740 -1523.817056 -1514.175625 -1508.716475 4383.795917 4362.675737 4296.570280 4197.893691 -1451.466282 -1448.418727 -1444.284628 -1441.719620 4326.423906 4305.575575 4261.667939 4162.961481 -1374.706341 -1373.427828 -1371.641264 -1370.479183 4259.167128 4226.277594 4141.752065 3987.743814 -1298.777761 -1298.193352 -1297.396239 -1296.860713 4173.811294 4131.406959 4042.746032 3858.640358 -1222.658087 -1222.355911 -1221.973843 -1221.708307 4052.023325 3996.124841 3891.068004 3700.287024 -1145.926511 -1145.740638 -1145.532500 -1145.381427 3877.719355 3807.146977 3700.479285 3504.589121 -1068.401213 -1068.263801 -1068.129018 -1068.026421 3653.706652 3531.850842 3306.520955 3091.577911 -989.999744 -989.883587 -989.781324 -989.700234 3430.251063 3277.461117 3001.457512 2797.829277 -910.681792 -910.577671 -910.493832 -910.424946 3260.367991 3097.137699 2772.310929 2565.222365 -830.424095 -830.332951 -830.268610 -830.212696 3173.802959 3062.259504 2889.908008 2798.292472 -749.206382 -749.139736 -749.111735 -749.080010 3147.919643 3074.428860 2972.064595 2943.939846 -666.996652 -666.985697 -667.039935 -667.062686 3162.352737 3122.200244 3073.817364 3057.999683 -583.723442 -583.844817 -584.092944 -584.242759 3199.868491 3176.677504 3151.772167 3146.352936 -499.210929 -499.653580 -500.362506 -500.807645 3239.961466 3236.843054 3284.588416 3322.167506 -413.015462 -414.262684 -416.066668 -417.181467 3249.441001 3218.873685 3181.316611 3159.654694 -323.981154 -327.371579 -331.752062 -334.297020 3230.616527 3157.979536 3006.401593 2925.046755 -228.863574 -238.687164 -248.855933 -254.058129 3212.396262 3136.677439 2992.300463 2907.340229 -116.942939 -150.767541 -170.801330 -179.792945 3204.381752 3146.320879 3041.205073 2945.555769 2885.931935 2650.521994 2371.862513 2401.429605 2577.185039 2732.499428 2819.933850 2876.554874 2912.360898 2932.709634 2940.882944 2939.067034 2928.765984 2911.029524 2886.601596 2856.025308 2819.718234 2778.025224 2731.253608 2679.694903 2623.636561 2563.366868 2499.175509 2431.351743 2360.181558 2285.944717 2208.912194 2129.344240 2047.489119 1963.582457 1877.847100 1790.493330 1701.719335 1611.711824 1520.646703 1428.689753 1335.997261 1242.716556 1148.986406 1054.937145 960.690264 866.356844 772.033295 677.790708 583.648841 489.512105 395.007289 299.042639 198.441699 82.635910 -18.006801 -73.708181 -103.457333 -115.982386 3200.012970 3155.751003 3073.251599 2955.776563 2799.498811 2573.467811 2482.978142 2568.273065 2663.145372 2753.616354 2825.711212 2876.985705 2910.996600 2930.855840 2939.011439 2937.322848 2927.171252 2909.566715 2885.246145 2854.756865 2818.523165 2776.895813 2730.186334 2678.688720 2622.691551 2562.483323 2498.353391 2430.590438 2359.479832 2285.300786 2208.323848 2128.808989 2047.004321 1963.145434 1877.455214 1790.144041 1701.410236 1611.440656 1520.411364 1428.488300 1335.827922 1242.577775 1148.876966 1054.856480 960.639238 866.339616 772.061808 677.895533 583.905730 490.109177 396.426910 302.621011 208.461084 116.583124 37.060670 -19.001585 -52.375011 -66.803661 3195.505700 3158.232932 3086.017314 2982.340251 2854.187063 2726.148704 2663.623664 2672.226865 2719.681077 2779.438348 2835.120081 2879.434179 2910.694959 2929.593135 2937.506463 2935.838485 2925.784727 2908.286014 2884.058298 2853.646519 2817.478539 2775.909600 2729.254816 2677.810492 2621.866380 2561.711320 2497.634500 2429.924173 2358.865198 2284.736318 2207.807706 2128.339071 2046.578380 1962.761168 1877.110347 1789.836370 1701.137665 1611.201219 1520.203230 1428.309789 1335.677527 1242.454243 1148.779490 1054.785182 960.596336 866.332220 772.108596 678.042650 584.264625 490.946426 398.375411 307.155228 218.762472 136.619047 66.493611 13.701269 -19.788642 -34.755173 3191.024264 3155.875756 3088.640220 2993.484805 2883.553793 2783.933564 2725.099387 2717.126586 2746.066286 2792.042081 2839.626044 2880.026970 2909.700385 2928.091939 2935.943784 2934.369413 2924.443593 2907.063385 2882.933733 2852.601067 2816.498381 2774.986100 2728.383332 2676.988986 2621.094228 2560.988437 2496.960784 2429.299204 2358.288127 2284.205864 2207.322236 2127.896693 2046.177049 1962.398774 1876.784785 1789.545595 1700.879725 1610.974271 1520.005556 1428.139799 1335.533782 1242.335496 1148.684818 1054.714302 960.550375 866.315573 772.133317 678.138807 584.504261 491.497062 399.609568 309.826908 224.077823 145.663058 78.952479 27.929901 -5.118527 -20.103869
</DataArray>
<DataArray type="Float64" Name="Velocity" NumberOfComponents="3" format="ascii">