<VTKFile type="PolyData">
<PolyData>
<Piece NumberOfPoints="2064" NumberOfVerts="2064" NumberOfLines="0" NumberOfStrips="0" NumberOfPolys="0">
<PointData>
<DataArray type="Float64" Name="Pressure" format="ascii">
 13008.057769 12994.950350 12971.499315 12938.905602 12897.609792 12841.726918 12762.789979 12660.598202 12539.438326 12400.915906 12248.030139 12088.820146 11931.468610 11778.941764 11630.371593 11483.930862 11337.205704 11187.486587 11032.815868 10872.301306 10705.754462 10533.335930 10355.369455 10172.258274 9984.445921 9792.395729 9596.578488 9397.464046 9195.515155 8991.182856 8784.903001 8577.093733 8368.153728 8158.461079 7948.372711 7738.224222 7528.330061 7318.983974 7110.459654 6903.011537 6696.875719 6492.270989 6289.400029 6088.450970 5889.599778 5693.014624 5498.865013 5307.342196 5118.705998 4933.392092 4752.250617 4577.036777 4411.232339 4260.812605 4133.656320 4036.860193 3974.383506 3946.168829 12998.067697 12985.192452 12960.354492 12926.481189 12890.002688 12841.749361 12761.181919 12654.284846 12533.789574 12394.991575 12236.227153 12071.893383 11915.111302 11765.616652 11619.533216 11475.706975 11331.838634 11184.129736 11030.501554 10870.480494 10704.188911 10531.928336 10354.081945 10171.077013 9983.366206 9791.415840 9595.697236 9396.679879 9194.825914 8990.585775 8784.394817 8576.670800 8367.812142 8158.196780 7948.181573 7738.102123 7528.272939 7318.987868 7110.520724 6903.126067 6697.040084 6492.481551 6289.652879 6088.741312 5889.920466 5693.352703 5499.193558 5307.601173 5118.758055 4932.924091 4750.572626 4572.760136 4402.149199 4244.966505 4111.683461 4011.805204 3948.644850 3920.517201 12985.420781 12973.270281 12945.797494 12909.300513 12890.126624 12864.412662 12771.398677 12649.909138 12533.407632 12392.764451 12211.323034 12030.441763 11880.167080 11740.706901 11598.147320 11459.539284 11323.270825 11179.991060 11028.013074 10868.701872 10702.745093 10530.667810 10352.944248 10170.038767 9982.418708 9790.555784 9594.922938 9395.989810 9194.218197 8990.058074 8783.944368 8576.294509 8367.506674 8157.958653 7948.007236 7737.988017 7528.215547 7318.983747 7110.566525 6903.218522 6697.175951 6492.657455 6289.864929 6088.984176 5890.185174 5693.621446 5499.427318 5307.710336 5118.532630 4931.868295 4747.516574 4564.987747 4383.818938 4208.871942 4058.656646 3953.188129 3890.538163 3863.527724 12972.579199 12966.319498 12949.573406 12930.176469 12937.282589 12920.302505 12813.044264 12692.915169 12560.014019 12388.460490 12153.597255 11956.007714 11830.644860 11710.060312 11570.781491 11443.033349 11318.194168 11176.889012 11025.981297 10867.159363 10701.445549 10529.509986 10351.888148 10169.069419 9981.530921 9789.747792 9594.193822 9395.338512 9193.643203 8989.557370 8783.515509 8575.934705 8367.212893 8157.727709 7947.835863 7737.872931 7528.153493 7318.971537 7110.601053 6903.296768 6697.294946 6492.814182 6290.056062 6089.205466 5890.429986 5693.877268 5499.667434 5307.873789 5118.475233 4931.238832 4745.421807 4558.961596 4365.962360 4146.975156 3958.670518 3854.762386 3799.254128 3775.932933 12957.792962 12965.980498 12990.013692 13019.153905 9037.577748 12943.033935 8138.326706 10096.774658 9266.301396 11079.898664 7160.088639 11254.545348 9212.172689 7244.564327 8817.041643 9416.847040 12041.937197 8314.017645 9040.897981 7236.101209 9141.254212 9243.440651 11157.207284 8446.621239 8746.350089 9915.557353 8253.783975 8861.725390 8360.396970 8419.223769 12627.139560 7767.595611 8388.530848 12099.751817 11380.771670 9289.566167 7858.452155 9539.583103 9855.108399 8039.016981 6612.150028 10389.970304 8296.446680 10701.344817 3778.849390 3716.347869 3679.208643 3662.575303 12931.038049 12951.771393 13008.490606 13078.602324 8505.610595 8199.005686 7263.100861 7286.106883 7955.316960 8418.150163 7326.982177 11033.140628 12946.143723 7632.265756 10010.285409 12881.485451 8271.797229 11500.448693 7640.174326 8200.031715 11301.570336 9277.519678 10564.339443 11854.065539 7978.653733 9307.534073 8740.468596 8885.456274 8131.228281 8653.728436 7467.998064 8469.735346 8393.933793 10863.450574 8868.933885 12889.507357 8236.566484 12778.082468 11204.822738 8491.844982 9264.460162 8508.016733 8517.309474 10189.346126 3577.628466 3559.632693 3540.918144 3531.380510 12881.866819 12906.356598 12972.369471 13063.395044 10441.494706 7507.439139 7318.745196 6992.254139 7186.778346 7781.504182 10995.269018 7716.056747 8374.929675 8556.397918 7122.247506 8223.020275 7690.398420 11966.030199 7336.032793 7863.634361 7433.671568 8111.335112 7790.373258 8130.300521 8286.861635 10187.969731 8326.904053 12153.138077 7443.857222 8749.643097 7937.119781 7592.359205 11819.464761 12535.032282 8172.936514 9129.594334 7906.568410 9128.244854 12217.164228 9061.364772 12188.937650 8452.032614 9154.797557 9368.203696 3409.381499 3403.298967 3395.339742 3390.749790 12807.182106 12829.057827 12882.252735 12937.105315 8921.858732 7715.143152 7286.007892 8383.570995 8317.562963 6953.999171 8264.819329 8109.932674 7831.797077 11497.559935 7255.197854 12213.108611 7159.886571 8797.048054 7414.885169 11567.866662 10616.097895 7187.229897 7522.240287 12132.399356 7977.423096 7353.480779 10857.734948 8117.098846 13060.125846 7048.425397 7428.146345 11656.486704 9460.903265 12710.522635 10566.116292 8362.887040 12495.458067 8077.072783 12956.695430 10539.989329 9013.601946 7866.402310 12444.830514 8958.828979 3254.106759 3251.991079 3248.808046 3246.871670 12711.106733 12725.286732 12754.642427 12768.509586 6412.321031 8018.961210 8451.778802 10034.738723 8171.745473 9413.719676 11490.251543 7178.580374 9679.259676 7437.124526 7058.439789 8875.548877 7323.153665 6760.860435 7710.101261 13000.760430 11512.173096 9346.312930 7245.247292 10808.039141 8853.657464 7608.438758 7119.739412 11887.375129 7512.075168 7929.041010 10414.242177 7488.356924 8666.985416 8982.437354 8228.395027 9056.653188 11537.193509 11375.829078 8938.086188 8433.000549 7287.095550 5592.938364 7721.136943 11554.855857 3105.740418 3105.111222 3103.953924 3103.256580 12602.844057 12607.752592 12606.833703 12583.200526 8091.078677 10413.654160 9015.858278 18763.768142 8798.347722 9219.970588 7910.240744 6878.839329 11950.098240 9375.367345 10262.475293 10681.992878 7322.026504 7906.703710 5147.909394 17632.333027 5944.334833 10732.385781 7157.140824 12451.523583 7282.942499 11108.675584 12095.901808 11033.658358 7191.052704 7211.889810 8700.735952 7323.154894 7228.898939 10519.785900 12547.177034 12495.112627 7672.985980 8948.580239 9154.912276 8527.121296 7409.317144 7387.723292 7192.855687 8509.673642 2962.100163 2962.062593 2961.755383 2961.602670 12491.612837 12499.107718 12518.973282 12526.315331 10733.754074 5936.345317 13066.603375 10265.256732 7120.708856 7344.692184 7293.940269 8937.319268 7747.664739 12841.407493 8728.346309 10287.467648 7610.683443 6243.396640 11066.867823 19921.161770 11198.734804 6071.825986 6742.061560 8643.694516 7829.742259 13032.218332 7328.420410 10984.425749 9055.957764 11163.219563 7459.367058 11814.703722 7377.929577 8468.851114 12280.141952 11497.763715 6672.395099 7726.810034 7169.851810 7141.175987 12216.768157 8586.328848 11770.049839 11165.651319 2822.329991 2822.534463 2822.583103 2822.663356 12377.262660 12385.684892 12416.332080 12446.899671 13604.351728 10363.876428 12033.518247 7941.023076 12403.532065 14948.628254 7438.902757 10256.767352 9382.066350 7059.731533 16174.185544 -10854.377960 7564.921086 6950.151153 10806.550853 10024.962607 7697.103931 10664.822980 12899.139863 10865.046713 6656.968949 18720.343336 17288.484910 7501.689967 7056.054291 10887.977694 8278.102724 11690.692098 9547.168650 10753.536263 8546.620284 9360.032895 7943.068044 9211.845003 10118.156507 9485.019220 7014.007118 8143.511406 10844.727547 8349.017192 2686.074322 2686.378804 2686.576112 2686.754635 12259.296854 12259.154735 12248.014962 12232.275617 11477.210540 9988.551803 8063.838121 13979.598386 13317.855910 12861.969425 15379.036500 15020.314871 12854.624104 7182.626184 2829.769180 9530.404660 7457.033923 10346.699580 10447.968899 6584.843464 10809.700006 10109.223914 7470.854859 7001.197909 8528.192685 9254.498123 6868.736255 10302.016163 8521.526354 11649.712791 9075.329742 7780.085314 7906.658022 7116.731328 10910.487627 7856.872632 6871.349451 7814.188479 12930.283562 11928.606672 7248.137766 7264.963442 7453.771888 9536.739791 2553.174861 2553.520418 2553.779443 2553.998872 12140.017786 12146.694575 12148.290989 12145.760776 14825.254284 9780.493302 7134.564421 7906.899085 10011.889720 9981.305034 7498.687686 10639.573129 14066.499358 10549.527844 7849.187641 12296.129256 11116.341982 16750.169475 12381.084635 10765.057704 9841.523980 7235.879474 10235.723772 10298.602986 9165.687100 -11446.456748 6326.331664 7718.964269 9521.639832 7053.907206 10862.788482 7162.926505 7548.347729 7560.778389 7853.208684 9580.263521 9877.759543 7100.800937 7863.211340 12404.339180 6730.613610 9488.317027 8489.963225 7207.577650 2423.551421 2423.913199 2424.197285 2424.433240 12006.025182 12034.560313 12106.517269 12169.138678 7227.089647 13836.523223 9066.499091 6507.224241 6233.485141 7208.127166 7511.079416 9459.076473 10405.892960 6295.481399 7121.741799 8771.628223 10124.802526 10418.244801 9245.173811 10422.790343 12800.264925 7512.453637 9350.091014 9569.472674 11299.399048 13744.429629 11552.357990 6673.297676 7381.861196 17036.141923 10981.642026 7706.268165 13711.612841 8998.253618 8202.750870 11403.278858 6740.623569 8567.048878 6999.589441 7384.724830 7110.150031 8350.425009 8266.587479 8351.642937 2297.153611 2297.520894 2297.814430 2298.056456 11832.251411 11866.476038 11951.711584 12023.072273 7813.438055 15680.838408 6173.307078 7987.588919 12925.727799 12109.905975 7673.375331 6851.775945 7422.285560 6357.617774 12664.966691 11543.921043 15162.662701 7042.516748 8651.889707 6712.228585 9501.706362 7333.312411 7389.404988 9687.082465 7172.554077 16120.425755 12679.288497 13883.401236 8603.828853 10912.967395 10106.659816 7147.149863 9875.986033 12109.950007 12546.776281 9451.230803 9072.453447 9761.811693 10427.437792 7547.042066 10119.745936 7035.748877 -3997.397841 7546.687685 2173.941031 2174.309011 2174.605201 2174.848700 11610.667234 11631.346793 11675.683903 11711.531986 5571.985319 6833.872966 7426.119793 8634.180619 11690.896157 9621.038579 15578.973565 3083.877361 11162.932532 6958.915812 6956.425596 10394.778748 6926.411240 7170.739928 8152.890405 6687.474153 7368.776018 8101.864216 6899.175421 7606.509490 7480.616208 7465.857625 8001.458647 8951.853159 6955.952432 11931.108176 9641.993753 9820.736860 7356.319816 18256.317667 14066.301657 6396.166629 8513.959664 7831.296600 6061.766310 6848.823208 8843.821023 8644.736857 7258.390538 7364.670821 2053.875204 2054.241555 2054.537302 2054.780141 11354.658987 11360.962763 11371.234007 11375.902688 14201.406654 20461.788485 7286.105178 7400.983546 6582.893932 10124.838626 8454.441789 7052.229160 8198.943794 20373.302999 7703.619857 5486.811560 7141.153412 5903.819111 8037.287898 7363.928336 7897.073217 6836.177842 10494.746880 10459.592647 -8246.514485 9549.318723 9850.332980 7466.651126 7278.210186 9949.372830 9118.166059 8564.519331 11665.001265 7946.832533 9723.427799 6662.553830 6970.795164 10606.306326 8080.042304 17471.173126 10437.346887 10183.511704 8965.884860 9738.775056 1936.916347 1937.279802 1937.573570 1937.814661 11081.355976 11079.211484 11070.595226 11046.794135 6225.598306 7346.267454 7932.693642 17185.546428 10431.095618 7974.587135 9737.030927 20001.725274 8137.390861 12835.097107 7447.802627 7198.593171 7108.728116 14441.138369 20873.542606 6630.434328 7633.560747 7548.734234 7492.839941 15476.157347 7105.223176 7243.852887 7729.279749 9643.570399 7994.743809 11491.057938 7105.839829 7665.620676 10626.328903 7091.933073 7387.148389 9904.405760 17999.202894 10082.027181 5612.299328 10883.196526 6987.779466 7107.000558 7556.982490 7408.044792 1823.022181 1823.381931 1823.672853 1823.911556 10801.268214 10795.615074 10792.055983 10756.500629 13031.504215 7893.940780 7489.199210 7988.089790 6008.882338 11850.332667 16726.033857 10296.842011 11274.565816 10323.105081 6690.410849 -10625.995563 6664.377087 -6145.642971 10107.840524 10999.090535 7173.370037 -6537.524564 10234.743792 -11887.520665 4433.765085 7920.925701 6680.188421 16630.194183 7478.327896 8861.403314 9253.299015 7534.571718 7039.747892 10932.887609 7488.758910 11282.480006 12132.611315 7601.348450 7813.945674 7540.219041 7234.639892 20276.678241 9562.976940 9218.161143 1712.147568 1712.503014 1712.790518 1713.026393 10521.147187 10501.464880 10462.919627 10393.428424 7638.180727 8689.025231 8086.040721 8219.077038 6939.202522 7392.490017 10040.218509 9367.196834 11495.528146 12559.889458 11078.582752 6780.461794 11209.154228 7314.189951 7616.431474 6835.060565 12380.569924 10705.803362 6798.846951 15659.257832 10305.998037 8694.135824 6588.124904 13742.711699 10312.476435 10100.489379 13989.187897 5923.417469 10774.485367 6842.574107 12142.136575 7112.547596 7092.409585 8148.129136 6460.980404 8023.991352 12499.745314 6328.479098 9829.693883 18859.969081 1604.244503 1604.595154 1604.878803 1605.111504 10255.608322 10216.094683 10114.586938 9992.201066 7880.809937 7486.268457 10431.366513 7854.520492 8826.252355 11144.432118 -13768.255102 8476.229495 7663.997472 7665.610850 7612.922030 9206.920124 6391.598400 7046.451534 8893.951046 8757.881151 7436.033634 8262.439356 8635.752331 5285.505672 -11827.926106 8431.475515 12222.225780 7627.792605 7473.430766 7250.826827 9465.399161 8348.739069 12692.906842 8584.585935 10993.171134 8586.290599 14867.475260 8416.727571 10530.480318 7627.952208 7104.365714 10271.851079 12785.683031 12777.352754 1499.262247 1499.607670 1499.887101 1500.116334 10021.196897 9981.481029 9885.827477 9755.256171 8556.606907 6876.027115 8035.116175 -6242.137417 6447.480517 8384.357089 15287.422349 10223.205606 7493.991116 -6933.193412 8214.963593 11087.459943 9485.966506 18351.448729 6566.548270 6243.583747 8586.595863 7551.584700 7560.563981 13142.407867 12962.584358 -11820.728778 7593.842630 9010.156061 9657.555958 7441.404525 8425.406078 7330.480677 8169.501625 11636.144839 8835.736223 6800.369625 12111.523877 7211.226270 19607.934748 6058.009356 6585.575016 7484.168963 12487.922110 11331.316352 1397.147509 1397.487315 1397.762206 1397.987711 9817.240465 9787.431624 9730.506710 9639.433169 8272.903235 12280.258087 7255.408525 7871.805175 6954.721585 9263.092838 8089.398681 8698.556753 8436.356692 9689.277020 7649.104586 7431.723290 12215.804059 7492.077066 7925.518091 8171.797982 12238.510948 12052.375716 12134.115447 10231.077006 7889.893011 16817.075856 9310.128340 8019.806650 7183.891696 7864.530896 12879.497825 12545.567474 10631.852423 7869.498104 9237.469790 6536.356888 9815.926388 13020.466279 8840.586030 8367.098714 6757.038536 8107.463329 6855.019426 7283.348522 1297.844650 1298.178484 1298.448545 1298.670085 9634.806926 9605.352018 9542.937554 9452.720699 1201.295888 1201.623424 1201.888391 1202.105749 9473.699073 9440.862501 9360.695352 9252.422837 1107.441494 1107.762435 1108.022066 1108.235045 9337.677853 9315.909793 9284.739969 9236.951061 1016.219987 1016.534059 1016.788132 1016.996550 9221.157055 9198.489496 9147.268890 9097.711306 927.568304 927.875258 928.123571 928.327262 9121.821210 9115.123961 9109.624671 9100.106325 841.421972 841.721579 841.963949 842.162762 9026.160555 9031.642566 9067.603539 9095.593084 757.715257 758.007311 758.243569 758.437366 8926.036242 8918.810993 8921.497973 8935.124672 676.381305 676.665616 676.895609 677.084264 8834.318743 8809.399656 8747.612335 8684.280721 597.352262 597.628657 597.852245 598.035643 8766.278131 8742.696170 8676.863573 8577.988709 520.559382 520.827703 521.044757 521.222793 8718.136854 8713.568317 8713.712208 8661.314437 445.933119 446.193219 446.403620 446.576196 8673.034839 8669.484157 8660.595935 8603.738182 373.403197 373.654938 373.858576 374.025600 8629.958430 8624.161407 8603.461717 8559.505209 302.898664 303.141916 303.338685 303.500071 8596.570314 8603.028779 8595.592895 8548.673075 234.347926 234.582565 234.772362 234.928027 8568.015648 8604.134890 8703.459497 8765.297229 167.678763 167.904663 168.087388 168.237249 8528.418174 8574.803251 8697.219583 8805.092303 102.818313 103.035350 103.210902 103.354874 8480.514664 8508.778627 8548.349306 8588.032533 39.693045 39.901090 40.069362 40.207359 8447.461529 8468.642495 8509.474156 8584.645248 -21.771302 -21.572388 -21.411507 -21.279578 8441.570118 8474.411967 8556.540358 8640.333095 -81.649807 -81.460174 -81.306806 -81.181046 8456.920173 8485.925169 8526.572350 8511.569172 -140.018483 -139.838297 -139.692578 -139.573098 8491.260636 8533.737363 8626.873307 8640.037253 -196.954426 -196.783875 -196.645957 -196.532882 8532.592096 8578.339143 8630.520719 8570.492768 -252.536002 -252.375298 -252.245353 -252.138826 8569.684006 8633.117363 8735.467488 8665.398792 -306.843069 -306.692456 -306.570684 -306.470869 8583.794803 8646.855050 8747.728907 8690.783977 -359.957252 -359.817011 -359.703641 -359.610726 8571.992036 8649.146762 8769.397296 8679.030207 -411.962255 -411.832714 -411.728010 -411.642215 8526.476648 8616.714154 8798.157115 8738.437855 -462.944240 -462.825777 -462.730047 -462.651625 8446.487699 8503.419204 8590.632422 8496.211252 -512.992262 -512.885315 -512.798918 -512.728164 8361.163438 8388.355470 8402.462565 8275.323110 -562.198771 -562.103852 -562.027201 -561.964456 8292.211485 8309.566939 8298.806856 8166.133828 -610.660199 -610.577900 -610.511477 -610.457140 8240.270517 8268.003807 8250.476415 8058.786604 -658.477636 -658.408644 -658.353007 -658.307537 8183.034528 8242.186299 8329.799066 8190.583036 -705.757597 -705.702708 -705.658506 -705.622436 8087.682747 8146.166104 8278.089623 8214.780611 -752.612919 -752.573055 -752.541035 -752.514983 7955.524688 7952.867484 7898.691434 7753.004667 -799.163772 -799.139998 -799.121026 -799.105705 7830.830492 7810.955312 7732.192116 7562.083800 -845.538823 -845.532367 -845.527440 -845.523673 7730.566095 7712.410390 7651.378023 7506.674509 -891.876553 -891.888829 -891.899097 -891.907830 7650.506709 7633.088726 7577.531171 7481.626910 -938.326755 -938.359390 -938.386172 -938.408492 7584.994534 7580.885595 7571.463523 7516.298357 -985.052221 -985.107074 -985.151883 -985.189035 7522.276979 7520.388562 7514.705488 7450.026468 -1032.230620 -1032.309818 -1032.374378 -1032.427783 7460.434505 7433.776215 7351.222662 7258.047905 -1080.056592 -1080.162550 -1080.248821 -1080.320092 7412.780913 7391.279918 7351.094519 7309.591698 -1128.744023 -1128.879472 -1128.989666 -1129.080624 7373.767051 7353.316480 7298.202326 7223.954955 -1178.528496 -1178.696497 -1178.833094 -1178.945778 7339.627270 7326.978125 7330.143427 7319.410247 -1229.669846 -1229.873798 -1230.039540 -1230.176208 7316.016458 7280.212051 7184.199638 7111.509249 -1282.454728 -1282.698348 -1282.896221 -1283.059332 7327.588721 7301.922427 7235.949706 7178.659288 -1337.199046 -1337.486310 -1337.719471 -1337.911630 7371.888506 7376.507673 7412.902601 7441.833028 -1394.249998 -1394.584998 -1394.856620 -1395.080466 7425.402834 7434.308107 7473.849968 7514.598086 -1453.987398 -1454.374059 -1454.686989 -1454.944945 7482.355715 7470.878426 7407.281421 7333.719042 -1516.823813 -1517.265308 -1517.621355 -1517.915117 7550.665748 7554.229205 7542.330033 7465.327844 -1583.202936 -1583.700494 -1584.098886 -1584.428349 7611.984810 7636.749835 7718.348257 7726.693768 -1653.595629 -1654.146024 -1654.580036 -1654.940970 7649.261261 7657.037168 7676.734044 7656.928437 -1728.493410 -1729.083539 -1729.532956 -1729.911898 7678.599577 7668.964509 7635.657209 7553.784686 -1808.400508 -1808.995370 -1809.409440 -1809.772248 7720.537927 7698.665926 7629.490332 7490.752314 -1893.829459 -1894.344965 -1894.603394 -1894.869413 7790.248855 7752.898168 7637.771084 7482.311226 -1985.315211 -1985.555476 -1985.378761 -1985.362456 7899.987644 7889.838202 7887.145683 7812.828183 -2083.488109 -2082.997437 -2081.740251 -2081.021157 8036.605291 8029.145609 8031.525757 7970.466283 -2189.311494 -2187.011075 -2183.187157 -2180.831373 8210.816397 8173.287009 8052.070429 7923.904903 -2304.768566 -2297.999456 -2288.199633 -2282.222821 8455.333752 8430.859347 8354.298501 8293.188908 -2434.897757 -2416.479618 -2393.041337 -2379.655836 8767.074062 8796.085566 8883.738377 8910.216425 -2593.568981 -2542.004233 -2488.632720 -2462.636619 9110.117093 9152.795035 9215.404279 9202.248474 -2795.916597 -2653.481231 -2555.177923 -2515.133884 9469.086298 9535.832096 9640.290683 9631.338860 -2945.750493 -2678.545701 -2565.840753 -2520.971145 9820.537651 9919.944095 10152.253818 10196.750610 -2750.200767 -2593.674120 -2510.809943 -2474.854875 10140.823982 10201.974854 10290.698717 10230.983084 -2492.135604 -2451.714444 -2408.272880 -2386.439070 10446.921321 10490.994452 10545.055339 10505.612453 -2316.647304 -2302.017080 -2283.181343 -2272.264565 10732.600089 10786.529849 10920.322282 10976.528790 -2164.407503 -2159.014735 -2151.191252 -2146.387153 10964.926101 10971.397576 10983.565473 10922.956385 -2024.131474 -2022.303270 -2019.269929 -2017.396401 11153.592497 11065.905346 10814.022390 10524.705542 -1891.592945 -1891.222012 -1890.243613 -1889.687160 11341.819418 11223.142252 10971.643967 10642.063015 -1765.146848 -1765.375013 -1765.266791 -1765.278954 11533.218092 11394.873436 11101.734366 10666.360101 -1644.027803 -1644.490129 -1644.738211 -1644.983356 11706.578167 11571.144755 11353.094958 10909.669004 -1527.763731 -1528.300814 -1528.681295 -1529.010402 11826.143120 11627.960583 11248.675831 10723.499946 -1415.964166 -1416.505302 -1416.920332 -1417.267396 11916.231219 11634.895106 11062.536841 10528.460180 -1308.249046 -1308.763139 -1309.170646 -1309.506932 12044.755388 11717.755402 11050.171770 10625.243683 -1204.229340 -1204.704249 -1205.088411 -1205.402923 12268.386545 11989.855687 11444.975641 11163.309111 -1103.504470 -1103.939317 -1104.299851 -1104.592156 12575.947302 12432.214179 12257.700550 12263.613655 -1005.661673 -1006.066870 -1006.419585 -1006.700063 12891.180484 12835.424465 12817.323093 12829.817708 -910.268785 -910.674615 -911.064336 -911.362506 13168.091026 13143.598224 13129.293763 13017.370150 -816.849879 -817.331747 -817.868585 -818.256031 13404.701151 13377.351034 13300.857154 13154.744603 -724.820575 -725.565527 -726.514166 -727.157782 13619.972545 13611.471920 13577.728813 13554.506879 -633.321692 -634.810876 -636.803530 -638.076486 13817.871683 13838.031948 13865.397897 13973.995512 -540.766566 -544.340430 -548.861305 -551.525516 13994.862728 14048.315696 14152.540103 14384.596233 -443.440130 -453.418044 -463.700992 -468.992530 14143.654253 14242.822900 14461.821270 14808.660791 -330.024288 -364.163524 -384.341687 -393.411869 14243.581891 14359.343058 14597.265284 14918.563046 15279.011949 15950.861221 16310.917310 16550.818065 17194.265658 17432.194263 17693.215653 19010.941284 18069.581157 15457.774916 12941.187152 11628.636383 10752.698340 9019.490439 7896.400038 7861.661024 7406.244186 7838.526166 7782.316202 7438.008560 7040.305053 6624.310848 6149.726390 5676.346096 5216.494040 4777.613345 4363.279095 3974.939304 3612.819329 3276.421966 2964.808288 2676.761795 2410.891101 2165.699974 1939.638971 1731.145343 1538.674203 1360.722423 1195.846165 1042.672772 899.907604 766.336004 640.819668 522.284414 409.690875 301.965801 197.833339 95.363606 -9.419331 -127.923462 -230.049599 -286.337227 -316.310659 -328.921743 14293.912371 14408.649431 14634.293291 14950.052588 15288.605368 15676.540677 15961.681031 16207.888473 16607.934706 16950.575481 17042.170169 17069.158857 16251.032849 14791.653748 13244.761955 11996.252860 10949.291939 9925.005521 9134.056281 8646.840254 8325.936070 8122.984631 7875.431227 7513.674795 7085.573664 6627.004442 6152.968296 5679.906318 5220.756269 4782.403212 4368.363096 3980.125607 3617.969180 3281.438493 2969.624225 2681.330719 2415.181912 2169.693432 1943.325328 1734.522500 1541.746149 1363.497874 1198.337449 1044.895069 901.878809 768.077843 642.361559 523.673763 411.019147 303.435359 199.939672 99.458779 0.989720 -93.510987 -174.489036 -231.243141 -264.902349 -279.430010 14314.259863 14421.929840 14626.042288 14902.717846 15214.777646 15530.196036 15817.183336 16079.776725 16319.147036 16464.577246 16435.753608 16143.024953 15458.051257 14436.996906 13296.576496 12217.037664 11244.517235 10381.100487 9672.491303 9131.410553 8708.184701 8346.667163 7976.650331 7562.793792 7110.572089 6637.267709 6157.484827 5683.474704 5224.509829 4786.506670 4372.712912 3984.580767 3622.411635 3285.780879 2973.804454 2685.305528 2418.922059 2173.180469 1946.549378 1737.480575 1544.440764 1365.935890 1200.529173 1046.853785 903.621135 769.625839 643.748814 524.960785 412.330782 305.050493 202.503397 104.462233 11.648306 -73.180265 -144.805024 -198.348293 -232.167236 -247.246340 14326.218005 14431.070044 14622.556842 14880.380244 15171.461913 15465.099844 15738.661206 15980.170957 16167.661053 16247.469144 16148.927040 15802.507022 15165.126922 14285.135171 13288.746485 12298.309385 11381.325725 10569.303941 9883.789651 9323.195374 8855.910325 8436.403492 8020.297578 7581.966876 7118.913064 6640.818399 6159.616982 5685.824757 5227.501456 4790.050162 4376.605547 3988.638758 3626.497477 3289.798197 2977.687006 2689.008084 2422.414272 2176.443006 1949.571406 1740.257990 1546.974807 1368.232002 1202.596088 1048.702949 905.266709 771.085907 645.049247 526.145153 413.483998 306.352264 204.338433 107.598935 17.312561 -63.879897 -132.164064 -183.997742 -217.415897 -232.530081
</DataArray>
<DataArray type="Float64" Name="Velocity" NumberOfComponents="3" format="ascii">