<VTKFile type="PolyData">
<PolyData>
<Piece NumberOfPoints="2064" NumberOfVerts="2064" NumberOfLines="0" NumberOfStrips="0" NumberOfPolys="0">
<PointData>
<DataArray type="Float64" Name="Pressure" format="ascii">
 9151.588245 9136.037918 9105.848472 9062.638674 9012.364902 8964.312938 8925.361006 8895.681708 8874.573998 8863.408623 8862.531604 8869.440712 8878.856598 8885.197812 8884.892725 8876.452887 8859.542796 8834.276825 8800.895161 8759.648467 8710.769924 8654.478638 8590.991040 8520.531413 8443.338921 8359.670976 8269.803668 8174.030163 8072.657909 7966.005273 7854.398086 7738.166369 7617.641415 7493.153292 7365.028771 7233.589655 7099.151447 6962.022316 6822.502290 6680.882649 6537.445479 6392.463385 6246.199434 6098.907464 5950.833204 5802.217206 5653.302006 5504.349197 5355.679605 5207.766228 5061.441809 4918.326703 4781.548002 4656.419668 4549.951233 4468.518663 4415.773361 4391.853876 9148.831629 9133.245390 9101.709688 9054.007240 8994.814158 8938.675279 8898.523641 8868.341677 8845.607235 8835.533581 8838.711875 8852.461972 8868.589849 8879.263240 8881.160160 8873.759742 8857.349954 8832.337586 8799.095094 8757.933948 8709.116395 8652.876071 8589.436879 8519.026913 8441.887109 8358.275473 8268.468006 8172.757409 8071.450486 7964.864911 7853.325841 7737.162689 7616.706228 7492.286092 7364.228701 7232.855578 7098.482007 6961.415983 6821.957392 6680.397380 6537.017885 6392.091287 6245.880213 6098.637543 5950.606792 5802.023306 5653.117334 5504.121542 5355.289351 5206.940556 5059.579271 4914.215016 4773.252094 4642.200176 4530.306087 4446.071262 4392.637791 4368.756716 9147.795131 9132.184328 9100.425992 9045.993885 8962.368208 8879.909827 8844.693684 8814.001215 8782.950569 8775.808293 8787.910802 8819.418719 8852.462350 8871.619390 8876.912597 8870.994878 8855.260338 8830.571291 8797.494820 8756.428171 8707.672736 8651.480739 8588.085222 8517.718811 8440.624588 8357.061390 8267.305317 8171.648766 8070.398037 7963.870227 7852.389917 7736.285995 7615.888774 7491.527501 7363.528282 7232.212387 7097.894902 6960.883657 6821.478402 6679.970148 6536.640656 6391.762003 6245.596191 6098.394685 5950.397691 5801.832735 5652.911506 5503.822560 5354.714498 5205.658318 5056.571200 4907.115713 4756.967166 4610.385640 4483.504799 4394.070001 4340.838611 4317.824195 9147.721601 9132.389839 9104.618628 9059.841458 8930.485072 8749.670097 8770.751072 8730.099781 8654.447653 8680.933861 8695.927024 8779.953081 8841.875987 8865.901091 8873.512479 8868.641136 8853.400558 8828.959046 8796.016844 8755.030999 8706.331081 8650.183322 8586.828040 8516.501690 8439.449278 8355.930458 8266.221479 8170.614511 8069.415422 7962.940788 7851.514669 7735.465458 7615.123034 7490.816276 7362.870988 7231.608196 7097.342790 6960.382448 6821.026788 6679.566702 6536.283812 6391.449976 6245.326764 6098.164687 5950.201735 5801.660203 5652.739318 5503.597765 5354.311681 5204.771960 5054.424563 4901.565899 4741.161941 4556.378871 4395.786653 4306.944291 4259.512928 4239.544549 9148.404638 9130.447772 9099.919725 9071.859770 7591.705140 8731.056609 7782.001997 7804.754039 7523.446457 8359.902426 8647.539792 8832.993556 7930.318632 9494.034824 6861.518073 7470.732165 8667.241357 6912.012707 7512.465701 8841.048568 7660.145316 7858.549633 8689.057888 6778.662891 6633.835441 7661.792635 7062.252931 7573.392267 6765.843636 7040.510956 9018.434806 6933.927468 6797.507653 8146.486555 8160.617254 7819.777527 6590.183025 7394.522558 7738.112801 8117.299545 3758.010710 8460.205690 7271.249437 7993.835272 4238.136357 4184.213515 4152.291806 4137.966175 9152.594187 9129.584739 9067.557722 8931.540161 7255.752173 7369.665795 8008.224943 9958.037123 6295.976775 6794.319991 8234.131334 8193.216468 8648.614135 8242.582477 7664.717526 8838.491106 7508.140636 8910.865958 7652.004844 6808.574414 8217.257789 7531.574210 8362.847557 8549.458440 6617.487251 7548.682877 7726.059614 7760.876257 7776.119925 6621.289301 7473.977387 7213.672467 6889.830029 8133.668670 7680.873684 9137.388994 6800.414163 8848.076996 8492.541043 7110.994969 7692.567170 6942.319297 6804.549427 8252.010693 4059.926002 4044.283727 4028.095666 4019.815251 9163.659522 9148.056212 9111.390774 9026.751645 7929.701681 10239.324189 7641.297800 10131.921260 10338.114305 7812.906567 8622.023813 8266.341990 6965.041104 6380.365625 8819.360224 6408.038379 7080.725745 8692.425194 8190.492366 7180.307336 10140.088936 6486.486913 7097.326592 6638.595474 6938.935987 7863.852388 6686.154660 8826.602133 6578.211751 6626.518971 7695.430238 8737.755611 8304.222391 8808.438520 7036.189074 7730.321976 8251.088149 7587.504908 8492.601383 7455.649607 9015.543655 6728.508848 7623.252570 7867.938862 3908.687174 3903.298107 3896.334588 3892.290229 9174.400591 9170.836834 9175.637901 9187.700275 7033.254562 8346.412938 9681.934938 6552.201263 6999.909777 9461.416027 7497.960714 6413.150132 6728.178501 9358.658445 11678.648134 8646.435390 10134.249390 6304.927570 7335.138816 7726.621415 8484.675549 8791.446433 9343.465037 8151.371007 6782.391810 8660.480041 8439.409545 7020.948173 8747.991369 8296.870068 8207.291624 8086.066837 7691.594701 9208.554694 8091.366403 7284.407940 8941.179907 7590.808911 8532.639976 9286.811507 7481.000429 6669.177925 9039.865178 7124.351658 3767.335243 3765.362245 3762.503179 3760.738129 9172.305268 9174.634653 9188.009600 9190.641743 17833.543656 6748.230084 7695.251684 8528.800174 6882.808173 7774.710602 8038.143928 10518.674321 7431.018511 8046.827097 9520.461801 7401.099215 6932.419678 10247.784983 6764.984794 8942.822263 7990.045897 7140.287171 9407.348154 8363.319582 7866.482871 6928.923293 10157.506076 8670.947720 7353.037516 6613.715165 8003.087606 7416.652012 7344.323436 6848.604078 7178.403790 6854.044423 8413.460143 8300.535646 7390.741901 6549.230583 8350.779229 -10051.881183 6604.429192 8254.635759 3630.727041 3630.038479 3628.924596 3628.227594 9149.987052 9152.540043 9179.575557 9268.945220 7518.013039 7729.831409 11219.326368 13190.331800 10391.912962 7993.184248 7865.066749 8054.474063 8169.053638 8759.998329 9039.630653 11058.541933 10449.764937 7309.385600 14334.399708 14646.071335 6262.630374 7518.565205 9966.787749 8315.654117 9794.491651 8210.392532 8155.177520 8544.641338 8932.594782 8635.931369 6955.751333 10357.235497 9147.452631 9280.678133 8678.337516 8869.833563 6823.785006 7624.301874 7715.548644 6382.484310 8482.914119 8041.825394 9918.910931 7089.447675 3497.052467 3496.879364 3496.501428 3496.276816 9107.746634 9100.066894 9073.266215 9015.278300 12193.111288 9991.635959 12168.015440 12039.038713 9457.023225 10983.652840 10004.918051 11067.010267 9673.070179 14662.155054 9679.642672 9080.427323 9391.217488 12995.799904 10490.359108 14176.023693 11539.076977 8902.354688 8765.119411 9258.039093 6877.484191 13685.387863 7366.509504 7919.728871 7328.884858 8027.338195 9298.462614 8434.164027 10827.735292 6704.981044 8723.591547 8459.368730 10825.042611 6453.258016 8941.101233 9989.461991 8632.074146 7164.047623 8570.950624 9081.223451 3365.637530 3365.679339 3365.612760 3365.592870 9053.863030 9046.870978 9042.032792 9057.645210 9631.368104 9931.665069 11181.641853 11012.752850 12167.069804 13656.521842 10009.021198 11438.758790 9851.807610 9752.798941 14223.130811 8564.883946 7542.879087 8629.986294 10829.530087 11077.644906 8398.436867 13397.646812 11446.611215 11989.140855 19167.652630 14809.550395 13517.423552 6556.000776 9235.563750 8337.574909 8928.858369 8474.897441 7912.013647 8166.320418 7495.890443 7719.786437 6978.682832 7540.783597 7719.678028 6348.667444 10014.860798 6595.419305 9160.780876 7611.797096 3236.235638 3236.370104 3236.436727 3236.505732 8989.087129 8980.185562 8966.318074 8965.476828 10574.607485 11731.028881 10365.295916 11595.239295 12968.612526 13112.649632 13402.002222 12973.786454 12478.967558 5989.312834 -505.933880 11412.103898 8200.779781 10512.216601 10473.557086 7390.581629 11346.276212 10207.564172 8180.635147 9215.383476 10252.497740 11563.369063 10535.132314 11669.852646 8420.787590 8449.786076 7577.914168 10419.840845 7371.521926 8442.332597 8103.215833 8978.219236 5203.090929 6666.643804 8601.147845 7906.905720 10186.313080 7760.054498 8534.954674 7667.823246 3108.767542 3108.943812 3109.068749 3109.177228 8912.940069 8902.616124 8872.049072 8798.657259 14560.729311 11364.720706 11087.937398 9272.763072 11505.267519 14310.078065 10171.788405 12117.910133 11695.638575 10563.746584 10169.264186 11002.972408 10922.633449 13241.866779 12373.396531 13408.815228 11577.738181 10605.982451 8911.014705 9808.129367 9337.358807 18199.418397 8397.217577 11527.110942 9528.096124 7742.431422 11273.371070 10377.162644 9234.393867 6372.159120 8827.174375 12662.299439 12210.212632 10549.207162 6832.338635 8475.366570 6183.425072 7662.980401 7017.244034 9623.742462 2983.219139 2983.415656 2983.567244 2983.694115 8824.025201 8819.590719 8820.653545 8823.251046 10500.371534 12033.755515 5477.007219 5873.929885 17542.149611 10426.746653 7674.423636 9543.280342 11170.187202 8623.130485 10509.638472 8506.070636 11251.154978 12229.288734 10365.630212 11156.719602 13012.995966 10842.884903 9246.926227 8376.056358 11868.137936 11980.270365 12287.041914 15800.394453 7243.993358 14733.856915 11872.997070 7764.348030 11596.939905 8060.322420 8674.977801 13821.632350 6296.475993 5365.577746 9767.769108 10769.340218 9718.255658 7445.951190 7348.514162 7031.212235 2859.600070 2859.807442 2859.972110 2860.108266 8717.485103 8713.170734 8713.670578 8725.356910 10087.719377 13688.055792 7353.823106 6804.114366 8544.579184 8793.806509 6805.497716 11547.989720 11302.447055 11201.446248 8553.252855 12128.706059 14917.819981 9781.887950 11386.721359 9552.414243 10180.862051 10100.081182 9808.417511 7484.546208 12934.555771 14746.254501 12640.170190 14615.623870 7150.594529 11673.850601 13641.733685 9790.366768 12006.857499 12396.572182 13822.763281 10233.369854 6230.954010 6595.862454 11927.110354 8410.945391 10790.619038 7798.354970 2520.290000 7813.476894 2737.926798 2738.140718 2738.312485 2738.453857 8594.731931 8583.906979 8579.353684 8622.762932 6089.026674 10294.839839 8195.180554 7329.022985 14421.641285 4001.931152 13042.160999 10176.933043 7742.149713 10023.695000 8757.171953 11265.193967 10188.039658 10369.574220 6901.818834 8268.442046 8660.464841 6375.353311 8605.343250 8078.936935 8337.727870 10882.055344 9613.977141 9116.055568 9962.543853 12453.424681 10166.312411 9412.168206 11095.384965 14091.567456 13322.748114 10754.566631 9510.667230 10634.720482 8260.328084 10305.814211 9675.823655 10273.962282 9343.408238 7982.619377 2618.215744 2618.434053 2618.610122 2618.754771 8465.573924 8438.565415 8380.373617 8321.544001 13026.365760 3719.938990 7974.871571 7374.103008 9321.462129 10733.173272 9036.746766 10767.209681 7165.819070 12655.472304 4628.143722 15500.045223 10396.228150 4171.532680 7326.488653 4068.653987 7446.665171 8418.328309 11435.249545 12693.196478 7549.225852 12483.616255 7913.872055 9983.361273 9470.028367 7354.012038 10334.677284 6648.213947 11504.185503 7199.908793 11724.886916 10144.014258 7807.708338 11048.248528 7238.306415 13546.287131 11403.145495 10076.976265 8570.240293 9419.297548 2500.480604 2500.702056 2500.880985 2501.027871 8346.537444 8309.695463 8223.462803 8113.100471 -8675.904938 9051.160210 8588.683308 6258.366470 10819.372412 6810.554601 7940.273458 13459.017797 8680.202176 8635.027410 10062.939367 9499.295053 10745.795473 13299.131030 13944.956777 9395.807293 7660.933387 7457.209514 9337.030646 13389.005177 9557.408473 9980.269428 7286.418215 7807.761159 7647.304150 9281.879370 9603.493824 7371.358472 10704.478209 10828.257751 9316.642736 7379.531237 13934.739270 10391.624532 11794.934665 11618.049573 11646.579858 10578.234654 9703.264692 10422.138548 2384.731392 2384.955148 2385.136072 2385.284550 8247.722151 8210.356694 8138.400801 8074.218452 13082.859403 8206.960830 7301.307405 7389.308200 10534.782333 8150.349875 12617.485180 11286.950487 8040.493092 8686.238454 10061.224322 7948.311675 7141.103819 3952.529395 11824.590390 11877.077795 9957.441222 8270.455668 13228.370582 9408.583143 3927.597779 7032.568194 16522.069366 13062.406284 7083.345650 6968.581663 9732.336676 7457.715612 10916.188341 13706.238579 8207.355284 8426.316929 8705.469290 10706.224043 11340.234853 10210.337388 9906.038690 14454.069211 11472.553295 10515.677787 2270.974219 2271.199628 2271.381945 2271.531545 8170.132340 8131.605092 8042.759133 7927.360653 6859.414200 9409.782090 10283.027354 7080.683049 5749.282144 10200.573370 11714.136950 7882.596353 8266.257885 9164.972582 7899.303957 10045.685961 14647.866108 8528.300765 7204.238062 7155.568072 8771.817244 7858.532343 10243.424915 13073.474018 9903.272568 7501.884890 13110.535241 12014.505889 7795.934860 7813.897195 10608.758971 3868.300376 8248.098721 7818.885644 8752.006326 10973.909182 8339.795355 6866.937058 16715.362338 6710.082489 11688.905704 9845.885424 13059.218212 13209.081167 2159.211370 2159.437881 2159.621113 2159.771455 8112.105396 8081.724645 8014.847510 7898.040041 7776.450813 10703.132314 11303.279171 7085.638389 7387.549568 8290.935023 -14566.533808 6928.476607 6996.237253 8461.798459 7081.389670 6516.471551 12449.124616 8268.286754 7579.499330 6878.810127 8204.919929 6794.630719 6797.277039 18351.198211 6943.846949 10623.000056 8788.186290 10721.048826 6710.906435 10344.202641 7568.571852 6555.604324 8573.543692 6628.509393 8224.767345 6799.299251 13543.610780 7148.978043 8119.906365 6772.968160 8620.000780 9797.868263 8856.462205 14550.157040 2049.441505 2049.668630 2049.852369 2050.003123 8064.524403 8042.861170 8024.759993 8036.610411 7449.989480 10436.903415 7173.840057 2379.013845 9249.943834 6656.405824 11985.086977 7560.436940 11433.211894 10042.717773 6810.742330 8633.423890 7795.525772 14320.316266 2941.084457 -13575.964069 7115.025746 8963.797327 7304.490068 12327.097448 12856.599766 -7539.396556 8340.751539 7682.268316 7769.912263 7463.255269 6546.237473 8092.999406 7178.717783 9072.930602 7588.653672 10531.527293 8181.846836 9663.655335 14294.525573 7397.246945 9759.345896 6951.356902 9091.220171 11579.382916 1941.659917 1941.887214 1942.071099 1942.221970 8019.358721 7990.153602 7925.533873 7863.223165 7426.143166 8430.992806 9031.427343 6391.781859 9381.496428 8183.583732 7738.021618 7053.636684 7332.236458 7673.914987 6695.459460 10315.553602 8427.844959 6561.447407 7627.716797 6881.827997 8866.010523 8730.735781 8559.783526 12261.698070 8207.507961 14629.867945 9811.990098 4490.607153 7463.668220 6713.315043 9087.024425 8757.694951 9565.865501 7084.668203 7089.616569 10482.712515 7756.492570 8780.885806 7504.999746 6213.763640 11557.540891 6648.627635 10540.151814 11011.040559 1835.858812 1836.085883 1836.269588 1836.420310 7981.292352 7950.009526 7881.422748 7768.943338 1732.027600 1732.254085 1732.437317 1732.587650 7951.986305 7924.531755 7866.284183 7790.835690 1630.153189 1630.378764 1630.561263 1630.710995 7927.187053 7906.275527 7868.755409 7779.807707 1530.220283 1530.444666 1530.626202 1530.775145 7900.213903 7882.767473 7859.884974 7858.369502 1432.211690 1432.434634 1432.615010 1432.763002 7867.387570 7850.138165 7809.404284 7765.414897 1336.108620 1336.329920 1336.508970 1336.655874 7827.767087 7817.252505 7807.953360 7813.187916 1241.890996 1242.110487 1242.288075 1242.433783 7777.376522 7767.151413 7753.359916 7763.101316 1149.537765 1149.755320 1149.931346 1150.075774 7718.148911 7704.043962 7683.849157 7643.015987 1059.027208 1059.242741 1059.417136 1059.560228 7655.985297 7637.408116 7589.191873 7554.072677 970.337252 970.550719 970.723447 970.865173 7596.506097 7584.181130 7570.311146 7591.792868 883.445786 883.657184 883.828241 883.968601 7536.428764 7526.994911 7490.797965 7429.346674 798.330977 798.540342 798.709760 798.848778 7472.510594 7476.072535 7503.639616 7533.733865 714.971578 715.178988 715.346830 715.484560 7396.586076 7400.400043 7410.961117 7446.904611 633.347242 633.552817 633.719180 633.855700 7310.016860 7313.178478 7330.640970 7377.044397 553.438830 553.642730 553.807742 553.943159 7217.927116 7211.502191 7199.705772 7176.262230 475.228714 475.431136 475.594960 475.729406 7131.957933 7117.439029 7070.733823 7027.678654 398.701069 398.902251 399.065078 399.198712 7061.611306 7054.260280 7025.624740 6954.926240 323.842165 324.042382 324.204435 324.337440 7001.881981 7010.004902 7045.671364 7125.594590 250.640643 250.840207 251.001738 251.134320 6939.983249 6949.307004 6977.919715 7059.331035 179.087782 179.287038 179.448327 179.580715 6875.070681 6873.584787 6884.208183 6897.857907 109.177748 109.377074 109.538426 109.670873 6817.705256 6796.258463 6735.537550 6662.097538 40.907832 41.107636 41.269381 41.402157 6783.284080 6757.554779 6691.371056 6638.957458 -25.721335 -25.520617 -25.358126 -25.224731 6773.375052 6753.838553 6702.354335 6620.896940 -90.705582 -90.503489 -90.339878 -90.205559 6777.218316 6770.570633 6750.871524 6701.606429 -154.037021 -153.833070 -153.667950 -153.532387 6778.314763 6785.488771 6805.590955 6798.747705 -215.703901 -215.497590 -215.330556 -215.193415 6762.673323 6776.597211 6819.677842 6859.914752 -275.690473 -275.481287 -275.311919 -275.172858 6727.174059 6733.426784 6778.664480 6916.019418 -333.976897 -333.764307 -333.592179 -333.450848 6685.417167 6665.127478 6607.212684 6543.480573 -390.539167 -390.322636 -390.147316 -390.003360 6664.138656 6635.649165 6560.339824 6458.737386 -445.349067 -445.128058 -444.949109 -444.802170 6672.053129 6656.098218 6607.714979 6526.359328 -498.374163 -498.148135 -497.965122 -497.814843 6697.095304 6702.404785 6745.585289 6860.181428 -549.577815 -549.346234 -549.158724 -549.004750 6723.812514 6727.648368 6732.592980 6708.970742 -598.919227 -598.681566 -598.489135 -598.331119 6755.470890 6763.248404 6779.558976 6818.626223 -646.353526 -646.109274 -645.911505 -645.749107 6797.535136 6810.266727 6852.315729 6940.562215 -691.831872 -691.580530 -691.377025 -691.209915 6856.200182 6869.725415 6874.544796 6836.143049 -735.301591 -735.042684 -734.833057 -734.660921 6937.931537 6972.667704 7052.075852 7146.132391 -776.706343 -776.439421 -776.223306 -776.045846 7034.760264 7089.260889 7222.490514 7451.374023 -815.986314 -815.710953 -815.488009 -815.304944 7138.493962 7200.708568 7337.820872 7544.137825 -853.078433 -852.794239 -852.564150 -852.375221 7249.972973 7319.379809 7452.446141 7604.291960 -887.916604 -887.623220 -887.385696 -887.190666 7368.880564 7454.736779 7644.629230 7929.443859 -920.431976 -920.129080 -919.883861 -919.682518 7486.111724 7577.924362 7758.470017 8013.079288 -950.553206 -950.240516 -949.987376 -949.779532 7595.966059 7685.233426 7852.815396 8062.326041 -978.206761 -977.884035 -977.622778 -977.408274 7700.337464 7774.455032 7883.552090 8035.773300 -1003.317211 -1002.984250 -1002.714714 -1002.493420 7820.970845 7884.779680 7941.920460 7994.057028 -1025.807541 -1025.464190 -1025.186251 -1024.958063 7987.266516 8073.010147 8121.506408 7985.338583 -1045.599468 -1045.245614 -1044.959181 -1044.724026 8198.271581 8358.313377 8659.839376 8884.114214 -1062.613751 -1062.249327 -1061.954345 -1061.712179 8409.524794 8613.112108 9068.425028 9403.647486 -1076.770507 -1076.395489 -1076.091939 -1075.842745 8596.861041 8795.961313 9211.029755 9598.208140 -1087.989518 -1087.603922 -1087.291818 -1087.035609 8766.574940 8959.265317 9358.802341 9842.186100 -1096.190521 -1095.794407 -1095.473798 -1095.210614 8921.344278 9103.613299 9499.578560 10077.400777 -1101.293499 -1100.886966 -1100.557931 -1100.287837 9064.003963 9218.493934 9535.281200 10001.344953 -1103.218942 -1102.802124 -1102.464772 -1102.187858 9210.856715 9331.003697 9563.005568 9856.865328 -1101.888090 -1101.461156 -1101.115624 -1100.832000 9382.003601 9478.451661 9616.149941 9714.801991 -1097.223154 -1096.786303 -1096.432750 -1096.142550 9582.041839 9696.347757 9914.227055 10130.072350 -1089.147506 -1088.700962 -1088.339571 -1088.042942 9780.196294 9919.717845 10236.007826 10702.194581 -1077.585834 -1077.129843 -1076.760812 -1076.457919 9939.601541 10066.331897 10361.552484 10840.783359 -1062.464263 -1061.999088 -1061.622630 -1061.313645 10061.001825 10125.016278 10253.786806 10487.873757 -1043.710433 -1043.236348 -1042.852681 -1042.537785 10188.523571 10177.195785 10079.176966 10058.849870 -1021.253529 -1020.770810 -1020.380159 -1020.059534 10370.803410 10332.260291 10173.649263 9906.969317 -995.024260 -994.533181 -994.135767 -993.809594 10614.819870 10614.154783 10570.245130 10386.474029 -964.954785 -964.455608 -964.051642 -963.720093 10880.814861 10958.732032 11160.521782 11460.537650 -930.978565 -930.471535 -930.061212 -929.724448 11106.448722 11223.115395 11495.779829 11942.131950 -893.030160 -892.515491 -892.098986 -891.757146 11258.849934 11349.809083 11519.683565 11842.809242 -851.044937 -850.522806 -850.100262 -849.753463 11349.242998 11378.018204 11294.567155 11068.235436 -804.958700 -804.429237 -804.000764 -803.649092 11418.503602 11439.521502 11434.654255 11411.319434 -754.707223 -754.170506 -753.736178 -753.379689 11485.663192 11494.730264 11512.822265 11569.636168 -700.225676 -699.681735 -699.241605 -698.880330 11574.819429 11551.978104 11445.716671 11250.000104 -641.447926 -640.896764 -640.450909 -640.084883 11716.014731 11689.656330 11619.114181 11544.279369 -578.305674 -577.747342 -577.295983 -576.925324 11911.589010 11883.969396 11811.270864 11709.614976 -510.727344 -510.162142 -509.705953 -509.331066 12153.826429 12128.054956 12067.148579 11976.504506 -438.636558 -438.065526 -437.606389 -437.228467 12432.064288 12412.345088 12384.972595 12379.147363 -361.949756 -361.375885 -360.918709 -360.540941 12728.690049 12708.081435 12691.893747 12747.215679 -280.571961 -280.003116 -279.560214 -279.190686 13025.651049 12986.913487 12935.227794 12948.074957 -194.388257 -193.844225 -193.445805 -193.104424 13315.449668 13243.226958 13082.840450 12875.299800 -103.245085 -102.774686 -102.493974 -102.228844 13605.678783 13509.036598 13339.189211 13184.856943 -6.906920 -6.630099 -6.643467 -6.569058 13906.377934 13774.870721 13485.574581 13135.037620 95.048090 94.833357 94.102824 93.719771 14236.130671 14103.839221 13788.794265 13279.314659 203.490767 202.018591 199.561317 198.123784 14584.470053 14500.385256 14386.024930 14225.848668 320.452826 315.598000 309.046565 305.332709 14895.943753 14830.300958 14783.262932 14868.114948 451.316394 436.284728 420.473276 412.483712 15136.804040 15036.699668 14853.178038 14705.751207 613.482124 560.404745 528.573600 514.383182 15324.467359 15189.011751 14866.435501 14289.652202 13855.032800 13738.822749 14029.175298 14094.822907 14230.037476 14242.728524 13972.175522 13715.016337 13468.663611 13263.165135 12808.450328 12507.693224 12547.190957 12466.883037 12310.332037 11862.711880 11484.047590 11065.087254 10626.015088 10175.290573 9719.531107 9263.908466 8812.422580 8368.102568 7933.182861 7509.261396 7097.438411 6698.433647 6312.681353 5940.404317 5581.669442 5236.428090 4904.544580 4585.815946 4279.985678 3986.753526 3705.782974 3436.707402 3179.135567 2932.656574 2696.844076 2471.258729 2255.446469 2048.926900 1851.157936 1661.442167 1478.682706 1300.712092 1122.188872 926.539279 762.331696 672.219641 624.003401 603.840100 15482.238293 15355.966692 15098.869854 14668.337009 14211.186821 14106.786718 14388.159151 14473.250645 14519.070371 14469.134017 14278.895851 14043.929555 13803.062920 13531.208271 13237.892939 12981.882921 12755.627085 12516.621860 12224.856969 11872.860575 11480.661967 11061.505957 10623.241676 10173.556894 9718.778975 9263.990902 8813.175814 8369.374744 7934.844456 7511.207326 7099.586271 6700.720318 6315.059170 5942.837425 5584.130668 5238.896450 4907.003410 4588.251601 4282.386683 3989.110088 3708.086746 3438.951459 3181.314581 2934.767316 2698.886616 2473.239270 2257.384142 2050.870179 1853.224943 1663.922902 1482.316840 1307.547548 1138.821994 979.895271 845.910008 752.674531 697.542981 673.926976 15596.328992 15490.800223 15303.179927 15072.222175 14874.921698 14771.864716 14748.190052 14737.130934 14692.415576 14588.928951 14421.719455 14206.185792 13958.247200 13687.075505 13404.062991 13124.049609 12847.073034 12556.449829 12234.115403 11873.193538 11478.773358 11058.814956 10620.922935 10171.994379 9718.020159 9263.950904 8813.729277 8370.395039 7936.219299 7512.843606 7101.409929 6702.674059 6317.099424 5944.931289 5586.253190 5241.028417 4909.129657 4590.359812 4284.466590 3991.152998 3710.085323 3440.899724 3183.208182 2936.604273 2700.669107 2474.977889 2259.108029 2052.651145 1855.234940 1666.570521 1486.568272 1315.647848 1155.592090 1011.166207 890.612025 801.210562 745.073530 720.274545 15643.235249 15546.603453 15389.623829 15203.500553 15038.378555 14929.060810 14869.799294 14824.076735 14755.461403 14641.092379 14474.564417 14262.770215 14016.956372 13747.490769 13464.365916 13175.557171 12881.001825 12571.789478 12236.987158 11870.988907 11475.307278 11055.515659 10618.323835 10170.254147 9717.106662 9263.754405 8814.119083 8371.245559 7937.420744 7514.305137 7103.059117 6704.454648 6318.968470 5946.856284 5588.209486 5242.997090 4911.095860 4592.311574 4286.394004 3993.047717 3711.940296 3442.709134 3184.967589 2938.311097 2702.323815 2476.586811 2260.690031 2054.253337 1856.969028 1668.693920 1489.649567 1320.830014 1164.679345 1025.709742 909.973434 822.817445 767.009232 742.040858
</DataArray>
<DataArray type="Float64" Name="Velocity" NumberOfComponents="3" format="ascii">