<VTKFile type="PolyData">
<PolyData>
<Piece NumberOfPoints="2064" NumberOfVerts="2064" NumberOfLines="0" NumberOfStrips="0" NumberOfPolys="0">
<PointData>
<DataArray type="Float64" Name="Pressure" format="ascii">
 41283.760661 41288.960421 41279.622301 41252.561621 41206.504541 41133.711086 40994.183316 40708.166074 40201.833479 39435.820346 38409.055783 37150.951415 35718.987092 34175.543972 32565.908324 30925.514517 29280.551666 27647.245649 26036.520528 24462.462069 22938.297857 21471.852463 20061.486707 18698.647309 17372.730014 16074.304809 14795.522381 13527.776312 12258.928689 10972.687870 9649.369663 8266.036352 6799.195362 5237.542006 3592.156071 1900.307272 308.371608 -892.946209 -1584.668785 -1899.361242 -2015.256502 -2039.687166 -2019.362500 -1972.285628 -1905.589848 -1822.838054 -1726.681195 -1619.708552 -1504.644201 -1384.356139 -1261.887332 -1140.637228 -1024.751624 -919.481110 -830.730317 -763.419999 -720.202254 -700.978942 41363.160833 41365.649296 41354.740685 41328.913211 41295.599841 41270.082731 41213.368005 40992.414776 40520.922368 39764.868910 38724.413781 37421.469725 35937.357905 34350.603337 32689.215362 30992.484444 29296.509384 27616.763996 25956.773136 24334.289306 22762.587138 21248.507272 19787.365562 18370.561099 16993.313551 15655.390613 14357.236949 13092.152022 11843.147366 10587.599942 9302.496353 7962.618532 6531.539937 4985.063605 3352.096458 1581.681921 -257.039233 -1494.297084 -1974.646347 -2089.993555 -2098.366356 -2074.278027 -2032.654651 -1976.280809 -1905.662763 -1821.438927 -1724.932169 -1618.099443 -1503.326083 -1383.232605 -1260.570728 -1138.303728 -1020.109809 -911.442170 -819.766049 -751.309372 -708.167315 -689.186306 41515.175003 41517.316546 41503.770963 41473.857985 41456.961203 41559.306546 41745.812814 41666.519946 41257.696661 40532.970468 39473.509729 38035.662273 36414.731448 34751.342899 32978.876447 31155.356107 29354.401156 27587.982733 25830.868415 24119.429941 22457.343249 20844.071408 19266.612868 17729.286819 16250.080932 14854.105178 13552.829734 12326.217004 11134.915210 9942.423608 8726.880579 7468.455710 6092.139015 4555.621477 3061.589877 1151.642351 -1558.828605 -2882.038023 -2702.355472 -2371.339579 -2215.484604 -2124.025677 -2052.983587 -1983.662890 -1907.452251 -1820.960153 -1723.687728 -1616.735494 -1502.033017 -1381.851014 -1258.462469 -1133.897727 -1010.034712 -891.706597 -791.378981 -721.073858 -679.246807 -661.370116 41751.910430 41760.489957 41741.465054 41704.832530 41788.660767 42258.204310 42884.029418 42865.370532 42457.227487 41840.604018 40780.306177 39063.034853 37226.017411 35465.952586 33535.783894 31531.429873 29596.115019 27706.656214 25821.144733 24006.291229 22240.206101 20483.738181 18739.130006 17049.007026 15472.582749 14058.187684 12796.294737 11628.048513 10492.537964 9345.641294 8171.171719 6960.793957 5612.090436 4113.689242 2854.963902 901.369461 -2498.112320 -3757.202564 -2918.005383 -2510.925251 -2285.960006 -2155.614322 -2065.949673 -1988.083604 -1908.098161 -1820.076302 -1722.328285 -1615.373374 -1500.819787 -1380.681534 -1256.847677 -1130.399918 -1000.014263 -856.289337 -736.124692 -669.639338 -633.615219 -618.565151 42088.162382 42133.735284 42146.917473 42115.636978 42375.006194 42417.295151 43376.604612 43746.316988 44070.242639 43990.778859 43605.363445 43385.205898 42960.124508 42346.770887 41200.353540 39743.040814 38293.469980 36941.431969 35388.199769 33796.405688 32166.346581 30572.374754 28985.999348 27342.499796 25720.806584 24157.849260 22613.973113 21056.879193 19486.950839 17944.665854 16474.960447 15113.763697 13865.428176 12704.168160 11598.475379 10513.713621 9416.516288 8280.716636 7092.239863 5830.518785 4407.878690 2884.646955 327.824291 -174.081085 -636.500536 -598.136715 -574.676438 -564.253429 42521.452937 42674.082772 42905.643635 43184.470638 43821.146489 44459.197476 44444.598935 44869.659642 44795.867504 44568.372976 44353.035977 43756.623259 43354.803561 42492.038945 41485.366352 40127.550541 38859.348429 37383.318631 35899.046903 34287.038783 32565.683059 30911.164207 29254.204931 27643.112875 26033.163682 24391.241389 22800.235952 21244.229168 19721.993048 18235.613194 16798.542179 15422.009574 14111.062493 12860.930473 11658.224621 10483.068899 9315.007818 8133.699820 6917.663144 5679.030000 4331.225791 3023.944332 1967.120937 571.178370 -531.635351 -520.950244 -509.471088 -503.742132 42985.944739 43297.752393 43913.200718 44583.625526 44833.686739 45126.261082 44480.058715 44575.539626 44885.834567 44815.017955 44379.865806 43906.495910 43224.290701 42441.388318 41533.830802 40351.502686 39074.006620 37610.211360 36077.324571 34466.699369 32847.496967 31184.740999 29527.638916 27856.500622 26190.759384 24560.098885 22954.349719 21383.047840 19852.062060 18360.092664 16913.897852 15516.427586 14169.262966 12869.907893 11611.598662 10383.038209 9171.155948 7964.367962 6738.045350 5503.094712 4237.011830 2925.442882 1861.546400 1037.608930 -452.713386 -449.504789 -444.917848 -442.396534 43355.754545 43793.960009 44711.555841 45488.963462 45510.838424 45297.093444 44739.627889 44872.911772 44857.734150 44829.168749 44535.887883 44155.201369 43241.594861 42606.441699 41497.647347 40430.466847 39071.711552 37655.817736 36123.063308 34545.067029 32930.180647 31270.776263 29592.019776 27903.699048 26231.543633 24579.803139 22954.112855 21366.292359 19818.521394 18319.602790 16870.288017 15468.558328 14112.321844 12797.740338 11519.468957 10269.965283 9039.899615 7824.287196 6608.176001 5375.637373 4134.166212 2900.294514 1829.408944 976.746489 -387.049288 -386.340530 -384.802745 -383.978284 43522.783199 43985.880281 44938.589273 45722.153284 45485.708260 45400.659599 45245.568668 45140.839887 44863.121375 44598.810119 44351.073983 43737.444111 43143.752368 42289.470095 41234.665677 40135.690539 38783.059143 37450.915150 35940.668976 34385.431195 32753.154474 31092.887690 29418.049448 27738.031268 26064.517786 24407.446885 22776.024201 21179.883754 19628.720908 18127.442069 16676.219380 15273.833329 13917.311224 12602.882368 11325.930515 10080.750157 8859.189915 7654.327878 6459.887223 5259.580624 4040.823907 2841.344555 1838.495699 1003.896271 -330.532943 -330.735316 -330.471651 -330.419951 43457.753168 43887.719829 44730.248286 45445.258841 44762.796150 44705.475010 44516.764249 44531.775483 44454.467049 44286.046862 43883.111484 43466.785286 42706.158451 41866.990253 40868.788367 39661.236146 38361.424420 36961.624333 35463.732023 33939.558308 32348.451460 30720.530985 29059.153950 27384.065622 25711.201357 24054.606745 22424.987733 20834.364629 19291.798864 17802.383636 16366.503301 14981.023414 13641.830093 12344.645183 11084.560822 9856.355674 8654.177487 7470.476411 6297.908282 5127.750282 3945.614541 2768.662379 1796.539798 1001.183079 -281.378169 -281.907551 -282.151830 -282.417261 43183.992382 43572.435815 44305.273389 44919.819282 44007.312154 44058.014508 43917.552671 43927.164937 43852.953711 43639.064234 43273.713633 42733.751495 42017.169989 41225.183043 40089.579325 38982.829993 37674.916929 36299.015925 34840.693962 33318.128117 31747.087542 30139.956023 28503.624946 26852.100303 25198.120959 23558.113440 21945.110434 20372.154592 18848.578364 17379.411990 15964.661619 14601.733385 13286.995094 12016.091238 10783.913908 9584.577827 8412.141679 7260.243089 6120.327260 4982.305393 3837.915827 2697.916138 1750.366586 985.502820 -238.580645 -239.204962 -239.631670 -240.008030 42741.693229 43099.493832 43774.718939 44370.590679 43497.018968 43426.752518 42970.723459 43004.898381 42987.860213 42750.874495 42372.615595 41872.950469 41150.781137 40293.478251 39254.119021 38116.728583 36788.300497 35451.074577 34001.182252 32512.210517 30976.091509 29398.535718 27791.782922 26166.356091 24536.197915 22920.443271 21334.497245 19792.138728 18301.473119 16865.823543 15484.460097 14154.831031 12873.462743 11636.187824 10438.200045 9273.918839 8137.172133 7021.685324 5920.234331 4821.665477 3716.648933 2616.138234 1697.588706 963.275538 -201.424593 -202.048755 -202.520475 -202.918159 42165.910147 42526.420589 43235.313020 43899.007664 42271.008271 42265.049505 41736.020706 41847.741573 41962.715068 41689.658003 41316.555986 40792.728775 40059.747802 39229.230183 38156.330138 37030.883190 35765.835775 34434.906902 33011.966123 31553.284126 30044.182452 28501.285805 26930.205225 25339.909169 23743.732376 22161.916410 20611.995293 19108.386649 17658.102381 16263.275558 14922.829650 13634.309385 12394.394145 11198.984827 10043.212956 8921.508674 7827.768771 6755.394813 5697.450281 4643.575574 3583.188623 2524.545937 1634.521813 931.640770 -169.310824 -169.896193 -170.355735 -170.737056 41461.089963 41845.905094 42605.428237 43306.277959 40810.746601 40927.340101 40617.708041 40670.043768 40708.103911 40417.316997 40073.094715 39541.042815 38801.395164 37956.923525 36906.596403 35806.825002 34548.675472 33248.627666 31870.548397 30442.437775 28968.363306 27460.955998 25924.031777 24370.478070 22813.253159 21273.623798 19769.785209 18315.308970 16915.410324 15570.776440 14279.985819 13040.704173 11849.832419 10703.486249 9596.940177 8524.640531 7480.476316 6457.805550 5449.683970 4445.999134 3435.598365 2424.300878 1565.076647 894.472713 -141.696507 -142.228586 -142.653200 -143.003270 40602.086909 41004.936636 41789.989400 42482.759456 39300.025963 39303.924087 39302.664040 39277.083725 39290.362277 38967.126221 38647.104206 38096.772834 37350.904428 36510.649799 35471.814702 34380.800306 33163.966367 31901.847529 30558.556284 29169.579285 27736.206732 26267.996328 24769.694300 23257.250623 21744.711669 20254.747051 18805.121838 17407.832712 16066.351386 14780.233615 13547.693563 12366.309257 11233.003025 10143.951504 9094.498787 8079.143024 7091.726951 6125.515141 5173.667296 4226.273969 3271.422992 2312.667696 1487.696636 851.964679 -118.076255 -118.551192 -118.933085 -119.247069 39562.446369 39974.768313 40793.514051 41532.238985 36750.862497 36863.107855 37274.440028 37242.631392 37621.164821 37275.337628 36999.711458 36425.314705 35682.875624 34844.456812 33826.763250 32760.849811 31583.566648 30358.648083 29063.891700 27723.558323 26333.714381 24909.283342 23454.201353 21988.117474 20527.507969 19095.891427 17709.628185 16378.406954 15104.074205 13885.191661 12719.572563 11604.638623 10537.297139 9513.769314 8529.449652 7578.870375 6655.839548 5753.497513 4865.009245 3980.705460 3088.079194 2188.166696 1401.980607 804.462244 -97.978205 -98.396974 -98.734946 -99.012498 38330.615091 38747.253665 39578.711577 40347.380037 34319.556920 34310.747290 35018.174722 34955.707811 35622.729536 35211.360717 34972.425904 34413.628394 33725.845435 32907.637675 31926.219086 30887.852580 29759.132144 28588.097764 27349.581502 26066.225835 24730.072122 23359.887403 21958.347093 20549.304403 19151.288480 17787.779404 16473.937334 15217.561534 14019.332321 12876.821978 11787.288236 10747.880997 9755.399319 8806.052352 7895.271933 7017.629945 6166.912912 5336.182839 4518.589283 3704.698529 2881.723029 2047.997019 1306.610799 751.601933 -80.964826 -81.330628 -81.626414 -81.869218 36917.745028 37293.333733 38022.347437 38781.917956 32602.135745 32390.964376 32779.123269 32470.140445 33001.806351 32591.552945 32547.809968 32012.426248 31382.455410 30594.115529 29679.223596 28691.875701 27627.966836 26527.389456 25359.693604 24150.937896 22883.776287 21582.463061 20250.660763 18914.804453 17594.392479 16311.972571 15082.153639 13911.875304 12800.819790 11745.497223 10742.395237 9788.330449 8879.993821 8013.625289 7184.777314 6388.189510 5617.773603 4866.643459 4127.972100 3392.573207 2647.730001 1888.838821 1200.007629 692.727536 -66.634510 -66.951552 -67.208184 -67.418828 35390.388640 35693.755212 36284.863054 37082.299577 28590.995660 27967.233916 28506.152168 28116.724627 29961.455292 29382.452011 29396.346615 28951.780803 28473.059762 27809.095416 27014.037548 26103.119579 25120.304359 24109.256309 23024.239641 21904.357066 20723.686146 19511.907058 18274.041973 17035.653649 15815.667989 14634.820866 13507.455353 12440.016140 11431.373682 10477.094102 9573.046031 8715.844255 7902.249569 7128.713127 6391.070511 5684.374709 5002.820672 4339.743394 3688.399557 3039.918019 2382.145354 1707.520458 1080.587783 626.954235 -54.622564 -54.895444 -55.116478 -55.297915 33845.108137 34119.887533 34619.100709 35359.130956 23756.367478 22477.193732 23293.964693 23245.672841 25550.011809 25069.053324 25386.199016 25288.112579 24998.747047 24472.217014 23860.435648 23110.280408 22236.363201 21335.264542 20347.486727 19328.146622 18249.302666 17142.006175 16013.122100 14886.155342 13780.507406 12716.162860 11707.296620 10759.480262 9870.457630 9034.493004 8246.446540 7502.283913 6798.562188 6131.790018 5498.038308 4892.722716 4310.490340 3745.198656 3190.501391 2638.196297 2077.519000 1498.296549 945.180606 552.295584 -44.601236 -44.834617 -45.023746 -45.179016 32308.339958 32564.176871 32948.529030 33592.962661 22356.720456 19742.897166 20524.231779 21072.711938 20772.072263 20957.148511 21560.626260 21596.093873 21361.663189 21091.315580 20672.567776 20056.410062 19254.227099 18416.834433 17484.984287 16533.591995 15537.209323 14524.222407 13501.281420 12489.103452 11507.176470 10572.952531 9697.748774 8884.219736 8128.134818 7422.546138 6761.514412 6140.742628 5556.923027 5006.911774 4487.227413 3993.771784 3521.742808 3065.660250 2619.681576 2176.434358 1727.002768 1258.071370 793.802608 469.628997 -36.278819 -36.477234 -36.638088 -36.770167 30765.037359 31042.454170 31573.843282 32419.921764 19104.807776 15873.026666 16474.135310 18517.813726 18027.850800 18756.070920 18463.398812 18491.108959 18587.737222 18602.736008 18396.052872 17929.944097 17155.796780 16302.351563 15336.535531 14341.526148 13312.455329 12279.544013 11259.666612 10273.991338 9341.204642 8475.137717 7682.322182 6961.308618 6305.713644 5707.125219 5158.131437 4652.958097 4186.916486 3755.679177 3354.865626 2979.843159 2625.684700 2287.281547 1959.326127 1635.578551 1309.062745 964.340954 609.602807 370.655701 -29.398012 -29.565751 -29.701781 -29.813498 29182.199128 29459.638556 30108.067550 31206.680910 14369.702768 11080.327720 11689.463131 14189.603421 12867.291848 15103.674780 15235.236923 15891.071256 16423.004975 16816.332094 16982.629469 16750.843844 16163.201896 15360.226113 14371.698612 13288.017195 12155.431523 11028.385249 9945.656363 8933.164168 8002.170533 7155.153714 6389.955840 5701.207854 5081.751718 4523.520778 4019.179241 3562.837958 3149.658402 2774.965762 2434.241722 2123.151752 1837.508971 1573.157134 1325.975823 1091.323477 863.968120 632.607130 403.331948 269.784100 -23.733743 -23.874788 -23.989205 -24.083191 27549.021581 27749.122695 28125.641707 28832.596840 8754.503737 11692.028831 10694.103162 9191.775068 2502.894602 11053.582455 10758.962982 12009.563413 13063.949494 13901.295990 14710.621267 15386.424758 15537.678630 15224.359635 14508.432721 13524.622616 12389.056161 11196.095613 10009.661244 8870.061042 7802.962874 6822.187691 5932.534373 5135.234769 4429.389611 3810.563046 3271.659429 2804.487360 2400.763883 2051.924434 1749.694794 1486.682045 1256.638493 1053.996796 873.683639 710.649104 560.133048 417.256903 289.902011 230.636152 -19.090651 -19.208639 -19.304380 -19.383040 25932.559798 26155.287980 26795.528465 27634.680310 -15.300381 -15.398591 -15.478306 -15.543812 24362.586995 24462.120361 24597.021701 24795.369919 -12.218833 -12.300188 -12.366240 -12.420530 22959.160702 23091.421037 23246.505268 23202.150079 -9.723452 -9.790530 -9.845007 -9.889791 21703.155948 21950.455278 22579.085041 23023.050586 -7.710636 -7.765693 -7.810420 -7.847195 20535.169792 20758.557055 21102.775761 21369.042433 -6.093310 -6.138302 -6.174860 -6.204926 19443.962179 19803.555951 20371.729954 20407.531932 -4.798692 -4.835298 -4.865052 -4.889527 18309.236453 18844.027223 20235.657851 21223.025091 -3.766264 -3.795923 -3.820037 -3.839876 17062.901005 17395.627077 17824.426324 17820.441863 -2.945966 -2.969898 -2.989359 -3.005374 15836.370800 16172.731312 16602.722634 16488.323176 -2.296593 -2.315824 -2.331467 -2.344343 14594.731366 15147.064745 16477.453273 17486.351335 -1.784384 -1.799777 -1.812301 -1.822611 13205.594420 13721.571995 14807.647998 15533.092912 -1.381813 -1.394085 -1.404072 -1.412296 11725.999501 12163.647346 13008.943518 13481.829266 -1.066533 -1.076279 -1.084213 -1.090746 10221.680068 10616.799650 11501.544497 12285.143643 -0.820485 -0.828195 -0.834473 -0.839645 8726.404548 9044.823106 9791.152769 10693.849776 -0.629136 -0.635213 -0.640162 -0.644240 7303.203421 7501.994779 7845.575275 8160.049010 -0.480842 -0.485613 -0.489500 -0.492704 6024.590067 6143.879940 6354.666011 6592.351065 -0.366311 -0.370043 -0.373085 -0.375592 4925.895423 4994.212375 5088.755651 5166.176273 -0.278159 -0.281067 -0.283439 -0.285394 4008.010034 4047.935853 4094.311421 4130.784133 -0.210540 -0.212799 -0.214641 -0.216160 3253.438086 3279.010783 3304.882242 3325.220199 -0.158848 -0.160596 -0.162021 -0.163197 2637.661363 2655.648253 2672.159212 2685.343669 -0.119464 -0.120812 -0.121911 -0.122818 2136.454498 2149.996513 2161.714727 2171.199484 -0.089559 -0.090594 -0.091439 -0.092136 1728.779344 1739.402160 1748.305618 1755.571423 -0.066926 -0.067719 -0.068366 -0.068900 1397.243090 1405.764443 1412.792748 1418.552592 -0.049855 -0.050459 -0.050953 -0.051360 1127.703820 1134.618116 1140.276698 1144.923350 -0.037020 -0.037480 -0.037855 -0.038165 908.699132 914.340225 918.939775 922.720253 -0.027404 -0.027752 -0.028036 -0.028271 730.921433 735.534065 739.288537 742.375720 -0.020221 -0.020484 -0.020699 -0.020876 586.789637 590.562985 593.631906 596.155896 -0.014875 -0.015072 -0.015234 -0.015368 470.111782 473.196752 475.704980 477.768079 -0.010908 -0.011056 -0.011177 -0.011277 375.820587 378.339729 380.387701 382.072370 -0.007974 -0.008084 -0.008175 -0.008250 299.764706 301.818530 303.488232 304.861846 -0.005811 -0.005893 -0.005961 -0.006017 238.542166 240.213531 241.572398 242.690390 -0.004222 -0.004283 -0.004333 -0.004374 189.366050 190.723420 191.827114 192.735244 -0.003057 -0.003103 -0.003140 -0.003171 149.955195 151.055180 151.949699 152.685787 -0.002208 -0.002241 -0.002268 -0.002291 118.444682 119.334067 120.057420 120.652717 -0.001589 -0.001614 -0.001634 -0.001650 93.312166 94.029577 94.613144 95.093450 -0.001140 -0.001158 -0.001173 -0.001185 73.317099 73.894377 74.364025 74.750613 -0.000816 -0.000829 -0.000840 -0.000849 57.450497 57.913845 58.290864 58.601239 -0.000582 -0.000591 -0.000599 -0.000606 44.893410 45.264349 45.566225 45.814770 -0.000414 -0.000421 -0.000426 -0.000431 34.982599 35.278766 35.519834 35.718337 -0.000293 -0.000298 -0.000302 -0.000306 27.182173 27.417993 27.609975 27.768079 -0.000207 -0.000211 -0.000214 -0.000216 21.060198 21.247441 21.399903 21.525479 -0.000146 -0.000149 -0.000151 -0.000153 16.269420 16.417665 16.538397 16.637851 -0.000103 -0.000105 -0.000106 -0.000107 12.531406 12.648430 12.743755 12.822292 -0.000072 -0.000073 -0.000074 -0.000075 9.623519 9.715621 9.790660 9.852494 -0.000050 -0.000051 -0.000052 -0.000053 7.368245 7.440512 7.499404 7.547939 -0.000035 -0.000036 -0.000036 -0.000037 5.624469 5.680996 5.727072 5.765051 -0.000024 -0.000025 -0.000025 -0.000025 4.280344 4.324421 4.360357 4.389983 -0.000017 -0.000017 -0.000017 -0.000018 3.247501 3.281761 3.309699 3.332736 -0.000012 -0.000012 -0.000012 -0.000012 2.456338 2.482882 2.504533 2.522389 -0.000008 -0.000008 -0.000008 -0.000008 1.852213 1.872712 1.889437 1.903233 -0.000005 -0.000006 -0.000006 -0.000006 1.392371 1.408150 1.421027 1.431651 -0.000004 -0.000004 -0.000004 -0.000004 1.043464 1.055570 1.065452 1.073607 -0.000003 -0.000003 -0.000003 -0.000003 0.779573 0.788831 0.796389 0.802628 -0.000002 -0.000002 -0.000002 -0.000002 0.580621 0.587677 0.593439 0.598197 -0.000001 -0.000001 -0.000001 -0.000001 0.431107 0.436466 0.440845 0.444460 -0.000001 -0.000001 -0.000001 -0.000001 0.319104 0.323162 0.326478 0.329217 -0.000001 -0.000001 -0.000001 -0.000001 0.235471 0.238533 0.241036 0.243104 -0.000000 -0.000000 -0.000000 -0.000000 0.173222 0.175524 0.177407 0.178963 -0.000000 -0.000000 -0.000000 -0.000000 0.127036 0.128762 0.130174 0.131341 -0.000000 -0.000000 -0.000000 -0.000000 0.092878 0.094167 0.095222 0.096095 -0.000000 -0.000000 -0.000000 -0.000000 0.067696 0.068656 0.069442 0.070092 -0.000000 -0.000000 -0.000000 -0.000000 0.049190 0.049903 0.050486 0.050969 -0.000000 -0.000000 -0.000000 -0.000000 0.035634 0.036161 0.036593 0.036950 -0.000000 -0.000000 -0.000000 -0.000000 0.025735 0.026124 0.026442 0.026706 -0.000000 -0.000000 -0.000000 -0.000000 0.018529 0.018815 0.019049 0.019243 -0.000000 -0.000000 -0.000000 -0.000000 0.013301 0.013510 0.013681 0.013823 -0.000000 -0.000000 -0.000000 -0.000000 0.009519 0.009671 0.009796 0.009900 -0.000000 -0.000000 -0.000000 -0.000000 0.006791 0.006902 0.006994 0.007069 -0.000000 -0.000000 -0.000000 -0.000000 0.004831 0.004911 0.004978 0.005032 -0.000000 -0.000000 -0.000000 -0.000000 0.003426 0.003484 0.003532 0.003572 0.000000 0.000000 0.000000 0.000000 0.002422 0.002464 0.002499 0.002527 0.000000 0.000000 0.000000 0.000000 0.001708 0.001738 0.001763 0.001783 0.000000 0.000000 0.000000 0.000000 0.001200 0.001222 0.001239 0.001254 0.000000 0.000000 0.000000 0.000000 0.000841 0.000856 0.000869 0.000879 0.000000 0.000000 0.000000 0.000000 0.000587 0.000598 0.000607 0.000614 0.000000 0.000000 0.000000 0.000000 0.000408 0.000416 0.000422 0.000428 0.000000 0.000000 0.000000 0.000000 0.000283 0.000288 0.000292 0.000296 0.000000 0.000000 0.000000 0.000000 0.000195 0.000198 0.000201 0.000203 0.000000 0.000000 0.000000 0.000000 0.000133 0.000135 0.000136 0.000136 0.000000 0.000000 0.000000 0.000000 0.000090 0.000091 0.000090 0.000084 0.000000 0.000000 0.000000 0.000000 0.000061 0.000061 0.000058 0.000050 0.000033 0.000019 0.000012 0.000007 0.000005 0.000003 0.000002 0.000001 0.000001 0.000001 0.000000 0.000000 0.000000 0.000000 0.000000 0.000000 0.000000 0.000000 0.000000 0.000000 0.000000 -0.000000 -0.000000 -0.000000 -0.000000 -0.000000 -0.000000 -0.000000 -0.000000 -0.000000 -0.000000 -0.000000 -0.000000 -0.000000 -0.000000 -0.000000 -0.000000 -0.000000 -0.000000 -0.000000 -0.000000 -0.000000 0.000000 0.000000 0.000000 0.000000 0.000000 0.000000 0.000000 0.000000 0.000000 0.000000 0.000000 0.000000 0.000043 0.000042 0.000040 0.000034 0.000025 0.000017 0.000011 0.000007 0.000005 0.000003 0.000002 0.000001 0.000001 0.000001 0.000000 0.000000 0.000000 0.000000 0.000000 0.000000 0.000000 0.000000 0.000000 0.000000 0.000000 -0.000000 -0.000000 -0.000000 -0.000000 -0.000000 -0.000000 -0.000000 -0.000000 -0.000000 -0.000000 -0.000000 -0.000000 -0.000000 -0.000000 -0.000000 -0.000000 -0.000000 -0.000000 -0.000000 -0.000000 -0.000000 0.000000 0.000000 0.000000 0.000000 0.000000 0.000000 0.000000 0.000000 0.000000 0.000000 0.000000 0.000000 0.000032 0.000032 0.000030 0.000026 0.000020 0.000015 0.000011 0.000007 0.000005 0.000003 0.000002 0.000001 0.000001 0.000001 0.000000 0.000000 0.000000 0.000000 0.000000 0.000000 0.000000 0.000000 0.000000 0.000000 0.000000 -0.000000 -0.000000 -0.000000 -0.000000 -0.000000 -0.000000 -0.000000 -0.000000 -0.000000 -0.000000 -0.000000 -0.000000 -0.000000 -0.000000 -0.000000 -0.000000 -0.000000 -0.000000 -0.000000 -0.000000 -0.000000 0.000000 0.000000 0.000000 0.000000 0.000000 0.000000 0.000000 0.000000 0.000000 0.000000 0.000000 0.000000 0.000028 0.000028 0.000026 0.000023 0.000019 0.000014 0.000010 0.000007 0.000005 0.000003 0.000002 0.000001 0.000001 0.000001 0.000000 0.000000 0.000000 0.000000 0.000000 0.000000 0.000000 0.000000 0.000000 0.000000 0.000000 -0.000000 -0.000000 -0.000000 -0.000000 -0.000000 -0.000000 -0.000000 -0.000000 -0.000000 -0.000000 -0.000000 -0.000000 -0.000000 -0.000000 -0.000000 -0.000000 -0.000000 -0.000000 -0.000000 -0.000000 -0.000000 0.000000 0.000000 0.000000 0.000000 0.000000 0.000000 0.000000 0.000000 0.000000 0.000000 0.000000 0.000000
</DataArray>
<DataArray type="Float64" Name="Velocity" NumberOfComponents="3" format="ascii">