<VTKFile type="PolyData">
<PolyData>
<Piece NumberOfPoints="2064" NumberOfVerts="2064" NumberOfLines="0" NumberOfStrips="0" NumberOfPolys="0">
<PointData>
<DataArray type="Float64" Name="Pressure" format="ascii">
 26975.138654 27376.989543 28011.576957 28741.872009 29372.052725 29764.429135 29861.147397 29644.010376 29125.240769 28338.705891 27320.707536 26101.060860 24707.727807 23172.298519 21531.923720 19823.928585 18072.288540 16290.911218 14505.479723 12757.936580 11091.265993 9538.023972 8118.214285 6841.365391 5709.207021 4717.928635 3859.926920 3125.133274 2502.005144 1978.237052 1541.222557 1178.272694 876.567735 622.795361 402.421817 198.532131 -9.927447 -250.789856 -560.519197 -973.492368 -1474.252970 -1936.780356 -2181.322494 -2162.214018 -1972.136284 -1716.585263 -1456.355389 -1216.775331 -1005.678482 -823.582896 -668.356134 -537.311689 -428.228799 -339.841588 -271.682043 -223.259863 -193.559165 -180.849652 27490.920448 27929.555935 28677.011399 29543.016967 30239.507680 30632.040853 30724.515036 30502.363923 29980.682956 29204.621899 28207.394379 27010.502351 25637.757894 24111.279664 22466.627551 20761.878968 19022.975958 17234.097914 15408.573278 13600.986489 11865.648849 10240.200214 8747.519602 7399.330449 6199.129533 5144.408700 4228.400801 3441.462307 2772.147002 2208.006210 1736.139241 1343.500814 1016.947321 742.976520 507.116840 292.958333 80.692767 -155.928836 -460.261180 -905.864345 -1545.412570 -2200.397749 -2476.392818 -2353.221356 -2068.910481 -1764.435191 -1482.150375 -1232.349890 -1016.112787 -831.084690 -673.812044 -540.866688 -429.569567 -338.733552 -268.765371 -219.758254 -190.186204 -177.627191 28292.907167 28846.909661 29890.833891 31178.842609 32009.369239 32306.664753 32414.799913 32172.569558 31624.707394 30859.532448 29886.960420 28730.014612 27428.886047 25934.937676 24259.514240 22566.355103 20898.389072 19109.299513 17194.997951 15266.809217 13398.384824 11633.253309 9998.800110 8511.205421 7177.769075 5998.809309 4969.354695 4080.652266 3321.442665 2678.972449 2139.747975 1690.042917 1316.158845 1004.381278 740.537205 509.451166 294.435385 76.304247 -172.673909 -609.057533 -1570.586094 -2929.842549 -3188.803386 -2692.799556 -2202.463995 -1825.723501 -1513.332237 -1249.842178 -1026.951982 -838.306858 -678.540437 -542.984587 -427.650794 -331.058423 -256.750558 -207.627333 -179.441757 -167.754053 29255.230219 29953.968582 31441.733278 33699.855239 34426.210364 34448.206948 34741.896836 34453.816001 33849.717682 33069.314661 32090.646671 30978.751282 29809.909008 28394.399434 26688.754170 25004.445116 23406.089760 21583.015036 19539.224098 17471.656836 15451.164756 13520.238685 11710.973696 10046.307578 8539.877128 7196.913125 6015.779063 4989.630094 4107.975242 3358.011946 2725.691535 2196.518618 1756.111076 1390.535403 1085.933470 827.737628 603.925028 401.077800 209.435686 46.248519 -1101.118344 -4148.015368 -4104.361077 -2778.351774 -2267.280340 -1863.500103 -1534.868520 -1263.084842 -1035.862526 -844.677275 -683.010568 -545.230561 -425.248938 -313.013710 -229.256960 -184.972439 -161.385556 -151.755765 30184.166367 30957.105812 32636.869828 35095.535439 35464.019011 35403.729407 36404.121686 36739.813544 36414.344864 35868.005088 35033.434576 34130.769053 33080.105040 31958.913897 30717.496745 29445.152346 28064.371152 26455.693193 24621.219996 22627.451657 20577.080351 18526.872312 16515.073621 14576.040788 12739.178601 11027.345133 9457.082453 8038.044130 6773.326572 5660.455190 4692.595628 3859.768121 3149.942093 2549.950840 2046.178376 1625.045178 1273.347319 977.767520 725.353708 503.383171 268.674598 33.340498 28.047202 -407.666611 -176.589578 -152.692930 -137.872306 -131.388215 30939.425200 31703.269589 33225.381632 35234.818532 36152.077061 36883.049906 38091.660276 38547.134342 38419.622263 37691.453976 36732.582030 35556.279583 34312.243428 32925.013281 31430.484295 30152.602982 28865.638979 27167.398654 25011.646401 22789.217657 20634.651829 18519.989241 16469.297758 14511.315392 12669.340416 10961.088018 9398.369609 7987.252552 6728.593935 5618.814732 4650.804401 3814.848112 3099.497970 2492.333637 1980.542511 1551.318875 1192.252829 890.747446 634.355260 419.206836 222.403502 47.649291 119.628669 226.778478 -126.235367 -119.862798 -112.850724 -109.396781 31460.713087 32224.164035 33788.637940 36062.631497 37570.748695 38222.377649 39333.372791 39889.115836 39647.098688 38883.895553 37755.744382 36337.550041 34906.233950 33368.145904 31734.027566 30129.798153 28478.398768 26675.312999 24681.135397 22602.087465 20510.054400 18445.152449 16440.528863 14522.534268 12713.143466 11029.502302 9483.474022 8081.690332 6825.947309 5713.831352 4739.481960 3894.408897 3168.296467 2549.742791 2026.866621 1587.736830 1220.870483 915.111084 658.255365 444.731857 271.861892 109.812363 -14.622144 -57.663076 -94.403665 -92.585454 -89.869793 -88.397807 31711.994932 32467.988644 34014.019483 36270.194460 38030.192196 38864.486994 39927.157350 40339.810711 39974.343527 39110.956030 37752.595922 36219.121283 34671.231056 33072.341471 31413.943801 29708.553265 27917.594543 26042.550593 24089.332210 22090.809181 20086.614565 18110.587607 16190.075857 14348.274686 12604.935559 10975.967081 9473.028373 8103.385136 6870.037258 5772.089156 4805.303815 3962.771073 3235.620896 2613.721180 2086.295620 1642.378202 1271.272021 963.022790 707.711136 497.680720 329.240686 194.519017 112.515306 58.535809 -71.704971 -71.326171 -70.430947 -69.957280 31679.512309 32422.637448 33959.156891 36234.838302 38037.899580 38859.962876 39795.296016 40176.501704 39742.930420 38701.701333 37233.507027 35596.231733 33931.181607 32267.419234 30578.559882 28871.572316 27105.317526 25280.136068 23401.637656 21492.926222 19582.201303 17696.758777 15861.053793 14096.538945 12421.601601 10851.281813 9396.976106 8066.257549 6862.890234 5787.054213 4835.754506 4003.365787 3282.253579 2663.412028 2137.061835 1693.129307 1321.616829 1013.007502 758.402528 550.617638 382.684881 241.593103 141.839195 90.308638 -54.717709 -54.811014 -54.631836 -54.581551 31369.836935 32088.584772 33569.095376 35746.333601 37450.304725 38241.638858 39113.550314 39404.347922 38870.906471 37814.920505 36338.168919 34669.545163 32988.686498 31304.939443 29595.984368 27883.928951 26138.166932 24362.735009 22559.857612 20743.330116 18931.910458 17146.023888 15405.726663 13729.596343 12134.142791 10633.337249 9238.206063 7956.539457 6792.774637 5748.078538 4820.620323 4005.997861 3297.766183 2688.008760 2167.895002 1728.165201 1359.509800 1052.844335 799.396525 591.577182 422.192068 278.305987 166.471067 113.106820 -41.740470 -41.969838 -42.048893 -42.151779 30806.857230 31496.144649 32918.261502 35026.435212 36633.286062 37363.572296 38134.428769 38349.096930 37759.355427 36645.183169 35130.860770 33464.854309 31794.783575 30125.850823 28440.287132 26759.794536 25058.998559 23344.587372 21618.685912 19891.290844 18176.016514 16488.375983 14844.411692 13259.646253 11748.392272 10323.186969 8994.306195 7769.383730 6653.184012 5647.560453 4751.602253 3961.945157 3273.202059 2678.458537 2169.775765 1738.645784 1376.371564 1074.357417 824.200907 618.110974 448.429388 303.333372 185.989274 130.618861 -31.752167 -31.996700 -32.150891 -32.292990 30021.641523 30677.717351 32029.068579 34031.409929 35480.490051 36143.395513 36859.214848 37036.658962 36405.367288 35261.667398 33749.472528 32093.965297 30435.941957 28790.147664 27136.779049 25498.892384 23854.631121 22210.349471 20567.154773 18932.070551 17314.954245 15727.497842 14182.354413 12692.285703 11269.500551 9925.064311 8668.368864 7506.691497 6444.888749 5485.260942 4627.598039 3869.390818 3206.170614 2631.928708 2139.561784 1721.289424 1369.008665 1074.574546 829.955348 627.539607 459.712884 315.428060 196.094658 140.079150 -24.056190 -24.274952 -24.434465 -24.571987 29046.482727 29668.190131 30949.760167 32860.396766 34156.620445 34746.515984 35387.994149 35517.943979 34852.563335 33688.647348 32185.548061 30554.061747 28925.810677 27318.463311 25710.121441 24125.927643 22546.655822 20978.129988 19420.814419 17879.536834 16361.331896 14874.861945 13429.915469 12036.773769 10705.641901 9446.085508 8266.492899 7173.602605 6172.146155 5264.645135 4451.378485 3730.510594 3098.350024 2549.695934 2078.224199 1676.864960 1338.135195 1054.403636 818.052980 621.753280 458.211783 317.175752 198.932489 143.448597 -18.139501 -18.322023 -18.462982 -18.581617 27911.650785 28498.292328 29708.908616 31524.641833 32642.233825 33157.231920 33732.109302 33829.523716 33138.678415 31955.805766 30467.789317 28869.006478 27278.455211 25719.438393 24166.778485 22646.234768 21140.351620 19653.914105 18186.741357 16741.888902 15324.210159 13939.987783 12596.670817 11302.416552 10065.620317 8894.404962 7796.104552 6776.790602 5840.893288 4990.958547 4227.560459 3549.364548 2953.317917 2434.929453 1988.597716 1607.944026 1286.118542 1016.054916 790.632906 602.917858 446.053884 310.534731 195.850478 141.917003 -13.608445 -13.755550 -13.872224 -13.969394 26645.238957 27196.336406 28335.221379 30054.286253 30966.483966 31405.308124 31910.661740 31979.784304 31269.009755 30071.983717 28606.741107 27049.971919 25506.046917 24005.112734 22517.550291 21069.089906 19643.784819 18245.063435 16872.116916 15526.508062 14211.333594 12930.961852 11690.915100 10497.537294 9357.607313 8277.886566 7264.640741 6323.186553 5457.515388 4670.034203 3961.444387 3330.757809 2775.431242 2291.588479 1874.293754 1517.839390 1216.019110 962.364444 750.303144 573.380533 425.261345 297.163818 187.983772 136.500179 -10.155134 -10.271358 -10.364778 -10.442201 25274.619910 25789.738082 26856.231427 28478.518379 29137.221018 29504.877399 29938.246723 29983.057733 29256.641358 28047.202537 26609.041229 25102.472988 23613.446513 22179.632968 20766.352698 19398.270775 18060.722898 16755.524883 15481.259018 14238.228507 13028.107581 11853.722718 10719.010415 9628.769809 8588.341833 7603.214310 6678.591783 5818.978724 5027.824331 4307.266444 3657.994820 3079.235279 2568.840394 2123.461687 1738.772952 1409.713327 1130.725255 895.966006 699.452737 535.269487 397.651109 278.543271 176.413634 128.129001 -7.537088 -7.627723 -7.701089 -7.761752 23828.245298 24306.676920 25299.217723 26826.762282 27185.236710 27485.818042 27831.156337 27843.216429 27099.389463 25879.409699 24473.166043 23025.942663 21601.105547 20243.888173 18914.388758 17635.005041 16392.393899 15186.681778 14015.911722 12879.349082 11777.507454 10711.949831 9685.280127 8700.955301 7763.018570 6875.760034 6043.339757 5269.417024 4556.828473 3907.348319 3321.549229 2798.766645 2337.155873 1933.822013 1584.997928 1286.244387 1032.651529 819.022118 639.998143 490.251669 364.622697 255.806804 161.998495 117.552046 -5.563270 -5.633266 -5.690147 -5.737132 22337.290500 22778.288326 23694.069906 25136.613959 25111.176106 25322.062277 25562.570168 25541.413003 24785.042690 23561.062343 22195.028062 20818.854077 19468.214183 18196.238869 16959.308549 15776.461901 14635.928198 13536.128861 12474.522141 11449.412993 10460.260385 9507.506378 8592.575577 7717.724629 6885.814118 6100.015580 5363.484693 4679.038345 4048.871515 3474.341739 2955.836857 2492.728998 2083.406843 1725.370574 1415.369784 1149.563488 923.685341 733.196903 573.393465 439.575976 327.217268 229.802299 145.402735 105.356495 -4.083619 -4.137244 -4.180921 -4.216987 20836.083218 21239.435861 22078.454537 23431.165460 22938.623451 23013.531301 23123.292075 23056.423704 22288.858842 21067.478351 19745.387946 18452.293168 17191.124171 16018.440272 14888.472630 13814.879505 12787.361229 11802.701407 10857.861431 9950.468336 9079.226422 8243.752247 7444.551475 6682.888911 5960.594724 5279.820240 4642.767648 4051.423103 3507.321255 3011.362844 2563.697891 2163.677289 1809.867278 1500.115268 1231.652049 1001.214352 805.174620 639.663634 500.654395 384.110977 286.161545 201.131662 127.114472 91.987239 -2.980828 -3.021615 -3.054886 -3.082360 19360.306579 19724.289460 20482.730820 21730.724563 20705.989928 20494.483928 20414.737287 20241.475224 19457.813047 18283.429476 17055.692945 15888.054188 14752.669587 13704.660426 12701.029528 11750.702154 10846.579061 9985.271571 9164.021152 8380.345645 7632.525087 6919.529233 6241.029501 5597.329643 4989.234830 4417.872945 3884.488592 3390.234149 2935.980745 2522.167041 2148.696591 1814.887176 1519.468996 1260.623836 1036.054438 843.072164 678.693139 539.731223 422.860222 324.736214 242.163450 170.368961 107.592792 77.840711 -2.163706 -2.194521 -2.219684 -2.240466 17945.273316 18264.277835 18912.258401 19920.962534 17463.259383 16974.132894 17111.899230 17095.688256 16404.098165 15281.971141 14139.036086 13095.531331 12091.589189 11174.565948 10310.047405 9500.839994 8740.891778 8024.936422 7348.772444 6708.692890 6101.896198 5526.419620 4981.096987 4465.459672 3979.590986 3523.949679 3099.180347 2705.929330 2344.682388 2015.636067 1718.609313 1452.996620 1217.759535 1011.450185 832.258574 678.074791 546.558967 435.209916 341.409397 262.519688 196.039003 138.150822 87.303634 63.226087 -1.561805 -1.584934 -1.603836 -1.619453 16625.270706 16900.795672 17422.293203 18003.239357 14977.591118 14507.084219 14331.989416 13976.007003 13008.212999 11932.960386 10920.648316 10035.656024 9209.608104 8465.427208 7775.936193 7136.987968 6542.200131 5986.182731 5464.829691 4974.601671 4512.792437 4077.440232 3667.251792 3281.491851 2919.848559 2582.289860 2268.922885 1979.866375 1715.143659 1474.600855 1257.852089 1064.250936 892.885282 742.591431 611.982490 499.485901 403.386203 321.867301 253.037517 195.002391 145.997180 103.193807 65.301435 47.779830 -1.121045 -1.138294 -1.152401 -1.164060 15422.560975 15687.812734 16159.059250 16708.025278 14663.468391 14146.943606 13428.965574 12638.824457 11171.860325 9823.459691 8695.812636 7769.172384 6932.918732 6195.018910 5540.230597 4958.628128 4441.580874 3979.842784 3565.740559 3192.803607 2855.537500 2549.379395 2270.603822 2016.211268 1783.812519 1571.516308 1377.823525 1201.530022 1041.639662 897.288993 767.684560 652.053400 549.606627 459.515438 380.898190 312.816756 254.280658 204.255980 161.668424 125.445745 94.602238 67.320167 42.968324 33.645485 -0.800186 -0.812968 -0.823429 -0.832078 14322.252039 14622.678036 15213.243881 15857.560509 7548.205558 5172.695432 10831.669894 12278.264067 11729.958918 10452.038577 8752.758010 7184.462832 5904.326778 4912.816140 4155.455925 3566.701696 3098.470642 2716.810262 2398.649382 2128.122247 1894.108149 1688.664552 1506.038630 1342.031235 1193.574397 1058.437560 935.012903 822.151171 719.031847 625.058653 539.775392 462.799288 393.769962 332.312525 278.013207 230.405785 188.967200 153.120554 122.240419 95.678585 72.825158 52.782225 36.066973 31.956079 -0.567983 -0.577395 -0.585104 -0.591480 13257.264529 13622.616407 14327.162678 14945.732289 -0.400927 -0.407814 -0.413459 -0.418130 12139.046263 12557.771205 13667.307108 16035.520002 -0.281442 -0.286451 -0.290558 -0.293959 10914.955667 11258.481662 11728.090634 10963.957856 -0.196481 -0.200100 -0.203071 -0.205531 9603.433166 9989.229622 10994.379757 12951.912890 -0.136418 -0.139017 -0.141152 -0.142921 8205.682491 8498.043734 9151.166661 10683.391397 -0.094201 -0.096056 -0.097581 -0.098846 6818.854113 6984.054299 7248.919016 7458.721615 -0.064697 -0.066014 -0.067096 -0.067995 5554.914156 5642.047827 5759.938265 5848.964667 -0.044196 -0.045125 -0.045888 -0.046523 4468.424186 4518.138492 4576.167930 4619.661919 -0.030031 -0.030681 -0.031217 -0.031662 3564.386992 3596.269724 3628.944956 3653.955913 -0.020298 -0.020751 -0.021125 -0.021435 2825.424932 2848.096629 2869.148554 2885.682777 -0.013647 -0.013961 -0.014220 -0.014436 2227.785831 2245.038732 2260.084975 2272.137889 -0.009128 -0.009344 -0.009523 -0.009671 1747.958251 1761.572037 1773.036169 1782.331996 -0.006074 -0.006222 -0.006344 -0.006446 1364.945596 1375.862531 1384.891160 1392.261838 -0.004021 -0.004122 -0.004205 -0.004275 1060.788765 1069.588584 1076.801956 1082.712194 -0.002649 -0.002717 -0.002773 -0.002820 820.443962 827.534711 833.322778 838.074629 -0.001736 -0.001782 -0.001820 -0.001851 631.454726 637.150745 641.791644 645.606067 -0.001132 -0.001163 -0.001188 -0.001209 483.584996 488.140425 491.849361 494.900003 -0.000734 -0.000755 -0.000772 -0.000786 368.472933 372.097635 375.048373 377.476648 -0.000474 -0.000488 -0.000499 -0.000508 279.323806 282.192252 284.527690 286.450416 -0.000305 -0.000314 -0.000321 -0.000327 210.644704 212.901881 214.740175 216.254179 -0.000195 -0.000201 -0.000206 -0.000210 158.018316 159.784253 161.223012 162.408385 -0.000124 -0.000128 -0.000131 -0.000134 117.911455 119.284990 120.404523 121.327216 -0.000079 -0.000081 -0.000083 -0.000085 87.513853 88.575874 89.441893 90.155902 -0.000050 -0.000051 -0.000052 -0.000054 64.603101 65.419372 66.085316 66.634567 -0.000031 -0.000032 -0.000033 -0.000034 47.432058 48.055689 48.564723 48.984718 -0.000019 -0.000020 -0.000021 -0.000021 34.635501 35.109087 35.495848 35.815081 -0.000012 -0.000012 -0.000013 -0.000013 25.153196 25.510665 25.802753 26.043938 -0.000007 -0.000008 -0.000008 -0.000008 18.166895 18.435081 18.654336 18.835455 -0.000005 -0.000005 -0.000005 -0.000005 13.049078 13.249058 13.412643 13.547834 -0.000003 -0.000003 -0.000003 -0.000003 9.321556 9.469769 9.591078 9.691375 -0.000002 -0.000002 -0.000002 -0.000002 6.622261 6.731438 6.820850 6.894808 -0.000001 -0.000001 -0.000001 -0.000001 4.678807 4.758739 4.824241 4.878446 -0.000001 -0.000001 -0.000001 -0.000001 3.287595 3.345761 3.393455 3.432942 -0.000000 -0.000000 -0.000000 -0.000000 2.297424 2.339493 2.374010 2.402602 -0.000000 -0.000000 -0.000000 -0.000000 1.596726 1.626968 1.651797 1.672375 -0.000000 -0.000000 -0.000000 -0.000000 1.103707 1.125316 1.143070 1.157790 -0.000000 -0.000000 -0.000000 -0.000000 0.758790 0.774137 0.786755 0.797222 -0.000000 -0.000000 -0.000000 -0.000000 0.518853 0.529688 0.538601 0.546000 -0.000000 -0.000000 -0.000000 -0.000000 0.352885 0.360489 0.366749 0.371947 -0.000000 -0.000000 -0.000000 -0.000000 0.238728 0.244032 0.248402 0.252033 -0.000000 -0.000000 -0.000000 -0.000000 0.160645 0.164323 0.167356 0.169878 -0.000000 -0.000000 -0.000000 -0.000000 0.107533 0.110069 0.112161 0.113902 -0.000000 -0.000000 -0.000000 -0.000000 0.071604 0.073343 0.074778 0.075973 -0.000000 -0.000000 -0.000000 -0.000000 0.047433 0.048617 0.049596 0.050412 0.000000 0.000000 0.000000 0.000000 0.031259 0.032062 0.032726 0.033279 0.000000 0.000000 0.000000 0.000000 0.020495 0.021036 0.021484 0.021857 0.000000 0.000000 0.000000 0.000000 0.013370 0.013732 0.014032 0.014283 0.000000 0.000000 0.000000 0.000000 0.008678 0.008919 0.009119 0.009286 0.000000 0.000000 0.000000 0.000000 0.005604 0.005764 0.005897 0.006008 0.000000 0.000000 0.000000 0.000000 0.003602 0.003707 0.003795 0.003868 0.000000 0.000000 0.000000 0.000000 0.002303 0.002372 0.002430 0.002478 0.000000 0.000000 0.000000 0.000000 0.001466 0.001511 0.001548 0.001580 0.000000 0.000000 0.000000 0.000000 0.000928 0.000958 0.000982 0.001002 0.000000 0.000000 0.000000 0.000000 0.000585 0.000604 0.000620 0.000633 0.000000 0.000000 0.000000 0.000000 0.000367 0.000379 0.000389 0.000398 0.000000 0.000000 0.000000 0.000000 0.000229 0.000237 0.000243 0.000249 0.000000 0.000000 0.000000 0.000000 0.000143 0.000147 0.000152 0.000155 0.000000 0.000000 0.000000 0.000000 0.000088 0.000091 0.000094 0.000096 0.000000 0.000000 0.000000 0.000000 0.000054 0.000056 0.000058 0.000059 0.000000 -0.000000 -0.000000 -0.000000 0.000033 0.000035 0.000036 0.000036 -0.000000 -0.000000 -0.000000 -0.000000 0.000020 0.000021 0.000022 0.000022 0.000000 0.000000 0.000000 0.000000 0.000012 0.000013 0.000013 0.000014 0.000000 0.000000 0.000000 0.000000 0.000007 0.000008 0.000008 0.000008 0.000000 0.000000 0.000000 0.000000 0.000005 0.000005 0.000005 0.000005 0.000000 0.000000 0.000000 0.000000 0.000003 0.000003 0.000003 0.000003 0.000000 0.000000 0.000000 0.000000 0.000002 0.000002 0.000002 0.000002 0.000000 0.000000 0.000000 0.000000 0.000001 0.000001 0.000001 0.000001 0.000000 0.000000 0.000000 0.000000 0.000001 0.000001 0.000001 0.000001 0.000000 0.000000 0.000000 0.000000 0.000000 0.000000 0.000000 0.000000 0.000000 0.000000 0.000000 0.000000 0.000000 0.000000 0.000000 0.000000 0.000000 0.000000 0.000000 0.000000 0.000000 0.000000 0.000000 0.000000 0.000000 0.000000 0.000000 0.000000 0.000000 0.000000 0.000000 0.000000 0.000000 0.000000 0.000000 0.000000 0.000000 0.000000 0.000000 0.000000 0.000000 0.000000 0.000000 0.000000 0.000000 0.000000 0.000000 0.000000 0.000000 0.000000 0.000000 0.000000 0.000000 0.000000 0.000000 0.000000 0.000000 0.000000 0.000000 0.000000 0.000000 0.000000 0.000000 0.000000 0.000000 0.000000 0.000000 0.000000 0.000000 0.000000 0.000000 0.000000 0.000000 0.000000 0.000000 0.000000 0.000000 0.000000 0.000000 0.000000 0.000000 0.000000 0.000000 0.000000 0.000000 0.000000 0.000000 0.000000 0.000000 0.000000 0.000000 0.000000 0.000000 0.000000 0.000000 0.000000 0.000000 0.000000 0.000000 0.000000 0.000000 0.000000 0.000000 0.000000 0.000000 0.000000 0.000000 0.000000 0.000000 0.000000 0.000000 0.000000 -0.000000 -0.000000 -0.000000 -0.000000 -0.000000 -0.000000 -0.000000 -0.000000 -0.000000 -0.000000 -0.000000 -0.000000 -0.000000 -0.000000 -0.000000 -0.000000 -0.000000 -0.000000 -0.000000 -0.000000 -0.000000 -0.000000 -0.000000 -0.000000 -0.000000 -0.000000 -0.000000 -0.000000 -0.000000 -0.000000 -0.000000 -0.000000 -0.000000 -0.000000 0.000000 0.000000 0.000000 0.000000 0.000000 0.000000 0.000000 0.000000 0.000000 0.000000 0.000000 0.000000 0.000000 0.000000 0.000000 0.000000 0.000000 0.000000 0.000000 0.000000 0.000000 0.000000 0.000000 0.000000 -0.000000 -0.000000 -0.000000 -0.000000 -0.000000 -0.000000 -0.000000 -0.000000 -0.000000 -0.000000 -0.000000 -0.000000 -0.000000 -0.000000 -0.000000 -0.000000 -0.000000 -0.000000 -0.000000 -0.000000 -0.000000 -0.000000 -0.000000 -0.000000 -0.000000 -0.000000 -0.000000 -0.000000 -0.000000 -0.000000 -0.000000 -0.000000 -0.000000 -0.000000 0.000000 0.000000 0.000000 0.000000 0.000000 0.000000 0.000000 0.000000 0.000000 0.000000 0.000000 0.000000 0.000000 0.000000 0.000000 0.000000 0.000000 0.000000 0.000000 0.000000 0.000000 0.000000 0.000000 0.000000 -0.000000 -0.000000 -0.000000 -0.000000 -0.000000 -0.000000 -0.000000 -0.000000 -0.000000 -0.000000 -0.000000 -0.000000 -0.000000 -0.000000 -0.000000 -0.000000 -0.000000 -0.000000 -0.000000 -0.000000 -0.000000 -0.000000 -0.000000 -0.000000 -0.000000 -0.000000 -0.000000 -0.000000 -0.000000 -0.000000 -0.000000 -0.000000 -0.000000 -0.000000 0.000000 0.000000 0.000000 0.000000 0.000000 0.000000 0.000000 0.000000 0.000000 0.000000 0.000000 0.000000 0.000000 0.000000 0.000000 0.000000 0.000000 0.000000 0.000000 0.000000 0.000000 0.000000 0.000000 0.000000 0.000000 -0.000000 -0.000000 -0.000000 -0.000000 -0.000000 -0.000000 -0.000000 -0.000000 -0.000000 -0.000000 -0.000000 -0.000000 -0.000000 -0.000000 -0.000000 -0.000000 -0.000000 -0.000000 -0.000000 -0.000000 -0.000000 -0.000000 -0.000000 -0.000000 -0.000000 -0.000000 -0.000000 -0.000000 -0.000000 -0.000000 -0.000000 -0.000000 -0.000000 0.000000 0.000000 0.000000 0.000000 0.000000 0.000000 0.000000 0.000000 0.000000 0.000000 0.000000 0.000000
</DataArray>
<DataArray type="Float64" Name="Velocity" NumberOfComponents="3" format="ascii">