<VTKFile type="PolyData">
<PolyData>
<Piece NumberOfPoints="2064" NumberOfVerts="2064" NumberOfLines="0" NumberOfStrips="0" NumberOfPolys="0">
<PointData>
<DataArray type="Float64" Name="Pressure" format="ascii">
 27419.243067 27526.930831 27729.915295 28001.812228 28275.180907 28465.321851 28517.460117 28427.887379 28190.860660 27732.012871 26988.763273 26019.956305 24949.039912 23834.424962 22622.773649 21279.647875 19892.166560 18553.287657 17277.739716 16031.588765 14825.797735 13715.144463 12711.006626 11776.801250 10902.646612 10116.784655 9431.411450 8828.336427 8285.180602 7789.124799 7334.102082 6916.327496 6532.357494 6178.650934 5851.632762 5547.861693 5264.170029 4997.746403 4746.167082 4507.390341 4279.728072 4061.805787 3852.518807 3650.989692 3456.529992 3268.608417 3086.827802 2910.915595 2740.739048 2576.370875 2418.259831 2267.599072 2126.950953 2000.820996 1895.161890 1815.259980 1763.945074 1740.921370 27452.942310 27570.983932 27804.618184 28121.812670 28425.690198 28612.176495 28655.912047 28623.209753 28546.503442 28209.396363 27434.714636 26347.810419 25193.543569 24086.823713 22856.704940 21387.197560 19901.581371 18549.944595 17299.898065 16026.726054 14754.473873 13636.057215 12671.961219 11737.761026 10828.759179 10040.970421 9386.626274 8811.404953 8282.628075 7792.516431 7339.668676 6922.408887 6538.224095 6183.998856 5856.361915 5551.972090 5267.709890 5000.784626 4748.778168 4509.646218 4281.693941 4063.538335 3854.065736 3652.389747 3457.812714 3269.792467 3087.915609 2911.879394 2741.487344 2576.672711 2417.589611 2264.888958 2120.506457 1989.172980 1878.886494 1796.767050 1745.062596 1722.163946 27488.066341 27635.698017 27948.279846 28394.046566 28797.225258 28999.993602 28949.923719 28935.258052 29247.271072 29216.991153 28305.978258 26863.940282 25504.694219 24537.942378 23351.518312 21508.395451 19794.201689 18486.476590 17382.788717 16020.220072 14514.195396 13410.076789 12624.965775 11667.298390 10601.239054 9823.973976 9287.071509 8780.179216 8274.087551 7792.872118 7343.435352 6927.270245 6543.180385 6188.628240 5860.506921 5555.599948 5270.846758 5003.482774 4751.098873 4511.650699 4283.438712 4065.073034 3855.432245 3653.621731 3458.934580 3270.816145 3088.831796 2912.635521 2741.934076 2576.436042 2415.769571 2259.382303 2106.786192 1961.731344 1838.635507 1752.668328 1701.731974 1679.866740 27518.424694 27704.680100 28123.127479 28792.717703 29622.746318 30395.582660 30369.564691 29952.387822 30296.785107 30223.878676 29033.661438 27093.329454 25623.550999 25076.708447 24218.567251 21899.355166 19672.139615 18541.656720 17780.335885 16094.230463 14183.066324 13226.807165 12667.551523 11536.994522 10278.408951 9642.894762 9252.428941 8762.256142 8269.490495 7794.308396 7347.324277 6931.945223 6547.877925 6193.008582 5864.436211 5559.047596 5273.834092 5006.055746 4753.312909 4513.562221 4285.100535 4066.532084 3856.728599 3654.788209 3459.996124 3271.787829 3089.713113 2913.395538 2742.474010 2576.493495 2414.657893 2255.185444 2093.327176 1913.786989 1761.860070 1678.280813 1633.552317 1614.819076 27518.661600 27722.064300 28146.604903 28962.375671 24261.070360 29530.713523 19268.809603 29473.057984 21877.583579 11551.242470 14672.276679 16918.293630 25595.976978 9040.071302 19647.025608 28572.796715 29529.653417 18107.349094 22182.890277 17241.406602 24476.335625 22389.800133 21847.644599 18792.310058 18029.846035 27114.545163 14792.568591 23178.835140 18161.182377 17810.534812 29408.101307 14961.963743 19092.699774 24754.173546 31651.903947 26471.480011 12320.860913 23906.514679 26089.212231 17568.675482 4987.157788 23791.407292 17187.130893 25624.901139 1623.481506 1573.926170 1544.271433 1531.034445 27454.996548 27670.739997 28056.844489 28724.657473 23431.418245 12318.330118 14223.176735 7742.894084 17094.100644 14158.613646 10262.179826 19385.627412 22281.783466 13187.565512 21154.088414 25825.467956 14272.652915 18291.681977 15706.129928 14226.818980 19240.738700 25149.676858 18650.621097 19826.472795 13794.009834 21110.449091 14376.045222 21791.994856 14749.548754 19201.630957 13599.390390 18335.192860 19950.024615 20021.983920 18011.467566 31523.889055 15566.538836 29415.130398 21906.439671 20759.769759 22340.449306 19206.123899 18705.324472 19765.140576 1471.327564 1457.229143 1442.435889 1434.945854 27295.039372 27561.538986 28092.865652 28644.220504 18736.190083 8801.715533 12401.086606 9135.745206 7861.982015 11034.978508 18390.258589 14541.452535 13972.824353 14103.788863 9535.743978 12828.767098 11368.249582 11721.269192 13161.688610 2841.110676 8713.584975 13888.462463 13783.441091 13466.730718 22048.726194 26906.286320 14468.704772 26697.640635 14099.010435 16595.098373 15952.081600 13421.089507 29671.412923 30202.075295 20093.333005 23740.867705 13466.606474 20328.875784 12553.475906 22741.415375 28619.706402 17656.753693 24963.870992 28732.726496 1347.562969 1342.959690 1336.790109 1333.279309 27005.729795 27290.505920 27877.407499 28553.852853 11838.557131 12759.079905 9835.301615 15793.776398 13651.996292 7335.632179 13139.588157 12989.294617 12428.632068 18448.429812 7792.430237 19475.311077 8122.200251 11347.993737 13489.961651 21433.897187 20448.469852 10788.355666 8569.895530 23240.951457 13365.483356 10156.983343 18604.792489 14443.912774 30350.581316 12155.037865 13153.363789 13143.173377 24407.688252 25277.142102 21367.608368 20841.721900 32344.523237 5332.365238 25321.729336 11015.572451 23888.983673 21197.049353 29000.589426 21589.728170 1236.102223 1234.661582 1232.313487 1230.927510 26580.049929 26872.816041 27481.067142 28292.896253 7519.760389 14208.914989 11396.946141 11354.998522 18469.760966 25967.006965 13355.511934 11544.566434 11434.284310 13109.578516 15883.483255 22223.849345 14065.972390 11622.408095 15222.019848 26982.062336 17280.854421 10129.303798 15053.682296 13906.179904 13959.456843 13520.349974 8141.329418 20522.175205 12680.962190 13047.532255 28787.874859 10218.025881 8960.803686 9628.654775 19294.301520 14115.941981 10289.592657 22924.586345 14082.599601 14273.110492 11902.075831 9770.424953 13603.882059 11208.306861 1132.005557 1131.743622 1131.010648 1130.611353 26020.401087 26317.834164 26980.070561 27770.964614 7437.945886 18421.357639 6177.718360 6074.286246 5870.458157 6400.054571 14169.274190 7091.842655 11831.986131 4290.817900 10702.460546 2874.479398 9076.246198 10861.743419 4710.453360 7065.418773 67969.852820 14893.320167 8851.136756 19996.133074 9757.103107 15034.433700 16297.583341 16791.146750 8781.280483 12653.643553 13035.504268 10795.499773 9584.112948 14537.611076 25583.917521 26172.994008 13787.257351 12763.741451 24698.548310 15411.631884 12823.749717 9996.008500 10560.148711 23414.192713 1033.422129 1033.621386 1033.559917 1033.589080 25349.208940 25579.557205 25943.340426 26126.431925 3365.973330 7761.113047 2975.589907 3149.359713 7634.641407 7553.175892 7433.009093 6959.914687 7195.750311 3051.174477 7159.979338 3566.630458 7245.658229 7452.492666 4499.370049 3677.710322 4744.084146 6945.942698 7048.692187 6681.896080 4201.214832 11062.146832 14766.896685 16771.349732 19194.008864 18884.418848 10682.547027 16656.892455 8026.333321 13826.795378 22534.062037 18545.163683 11112.553663 14912.717953 13126.114711 8466.308507 25467.157086 25419.008292 18629.279861 9359.578348 939.556526 939.935860 940.148665 940.355517 24633.594663 24860.864496 25255.355953 25506.663907 2932.454551 3915.135643 2756.417911 7566.362137 2241.515197 3302.568052 8557.934606 2986.155179 5191.220090 15120.431836 4496.639456 5422.559123 7097.588024 6538.121585 7080.466458 2891.720568 6853.254463 3351.315051 2969.822525 4701.780855 7929.449177 6474.761887 7585.039952 11721.356724 12135.176512 24615.277341 6783.617773 27876.089167 14888.859542 28425.376008 12764.892799 23160.734389 13507.737525 11569.017489 30838.905673 -9368.160703 8238.177415 15587.521687 15006.769101 12006.425371 850.008883 850.453563 850.773705 851.049580 23888.699930 24119.160912 24572.088567 25019.616777 2946.192932 4742.970544 6385.646563 2256.118907 2299.439947 6035.776553 3652.742098 3028.779385 2841.039388 7102.104415 3007.473755 3587.598147 7166.669821 3391.315921 4668.175717 7401.002889 6051.807939 6282.188085 12170.228443 7415.963276 7523.582027 6586.907215 7472.957534 3105.365442 6262.684896 17213.658703 24973.020917 7398.707149 11875.666139 11629.228238 18643.755223 34253.835082 -11699.610274 15536.505134 23839.546202 17043.484918 9541.188900 10426.093105 12896.632141 28542.178034 764.532713 764.994741 765.351834 765.650205 23111.180296 23316.128626 23679.009589 24022.972758 1808.414643 3021.009354 6503.094113 7932.837154 3879.448960 6148.194432 7906.982638 2956.436598 3012.452282 3014.864971 6310.473428 4626.294722 2837.029519 6297.469957 2924.510147 2949.326971 5311.058419 11278.761945 3501.064639 2979.464371 6056.571836 2833.656343 7318.606603 7141.586511 3699.248904 7293.188264 2925.736312 7662.098193 9859.149647 11659.580963 6919.520772 6706.981272 5015.562198 9080.702871 14026.707284 19538.947163 17418.384067 26338.159628 21717.203490 12037.060675 682.940052 683.398887 683.763012 684.063909 22312.752761 22500.366678 22873.144617 23305.924379 7775.966132 2945.694485 5718.685249 7251.515982 7328.566087 7596.045450 14893.108790 6794.681638 3211.794975 7291.409546 7170.883383 7426.172267 6326.009290 2907.596243 5643.248143 4281.449643 2962.115468 7156.439382 2986.108539 5857.998961 2869.321310 2398.687070 3018.517340 7119.087735 14220.877435 6259.681468 2959.787262 9715.536714 2997.384333 4315.678255 6751.600535 6714.411975 6823.120021 6785.490670 6961.697507 7529.855159 8054.608901 20360.309228 15343.318882 2534.429289 605.063499 605.510075 605.868317 606.163037 21508.593171 21654.005357 21947.162857 22330.996419 7453.882501 2479.899911 7214.422485 14022.007148 26629.756140 14944.754559 14472.450504 9466.699836 6608.025493 7320.481764 16834.286984 2854.308635 1850.308980 7850.087154 6493.012231 8056.494238 7135.574723 9301.040074 7709.888909 2914.181369 7674.200585 1846.388475 2862.035796 2726.317900 13075.777613 2959.127491 2965.467751 7396.264004 4971.685766 3504.210548 3013.252841 3210.832500 6715.766127 6518.279317 3342.377435 6871.035521 6714.001339 11063.667347 5702.288522 9900.634437 530.741223 531.171353 531.517985 531.802620 20728.130282 20788.317487 20852.874039 20976.603657 7126.053460 8017.768814 8426.266566 7115.277598 6527.657697 7749.961464 5034.793545 7847.749045 14242.635683 9244.643292 5711.601193 2877.836613 7789.039524 8165.096727 20961.028146 6875.707305 11029.354600 11449.948100 6960.667472 14751.580753 15394.430988 7469.556346 6866.368190 5332.071301 9305.991232 6174.422107 5181.386975 5153.202274 7381.749469 6099.170637 2331.581675 6876.822833 7468.075247 7114.679541 7383.435583 9819.385594 6431.775760 5178.673508 10466.309222 11819.384868 459.811453 460.223085 460.555470 460.828185 20015.872615 20008.886982 19900.989814 19847.912844 2243.718740 5087.224391 7166.182801 12006.684388 7650.303047 4822.764315 25305.214379 20835.002132 14521.659129 3260.123991 6887.269353 6836.671724 7189.803645 7102.566833 9092.740504 6135.314355 12125.026085 10735.428965 4422.479187 26977.492277 2875.313068 6420.786998 20020.453952 7699.747671 8387.400248 6765.611467 6220.795159 13253.842500 2999.145386 6358.928866 2971.943073 6942.077513 7446.658219 6171.506423 15040.095693 21552.920313 5391.914751 3867.725656 5659.129468 3887.617938 392.110918 392.502992 392.819864 393.079759 19398.907483 19388.749757 19325.991329 19261.463760 7281.022161 6860.228758 10187.697418 6655.478495 5937.778686 17286.500999 16507.717237 4181.277334 7292.219143 19484.575880 12634.653634 7971.912826 7632.973061 2256.114665 2719.463867 7595.081736 14132.442745 11686.798161 18019.287973 2292.980339 9664.562100 7779.845599 14699.388069 13327.652941 10580.810384 16786.747409 8811.821836 4599.893589 4297.205127 8152.557834 10692.766813 6098.130727 5786.157637 6619.929217 7167.137659 4004.132489 7980.045081 7402.324945 6926.162828 7330.704364 327.474926 327.846896 328.147641 328.394273 18860.075845 18850.884501 18803.312181 18727.109933 2675.428766 11439.834509 13735.507805 10520.385120 6635.684205 19828.116743 3281.053128 3913.208238 10598.665697 12892.930781 8133.349891 5584.514939 10806.222549 6980.608542 5955.559055 2757.533442 7985.378080 2454.998666 3687.810680 3952.968787 9241.285299 17032.842003 9494.923536 1875.116289 13232.754374 14277.927644 6089.262688 11851.589708 7814.834908 5376.669412 7913.086548 15051.440332 32540.977570 7667.771544 7450.824680 7360.793078 7384.692418 7794.500811 3783.032549 5417.355170 265.738123 266.089753 266.374110 266.607289 18376.181226 18374.173761 18335.018795 18240.020022 11911.192234 7490.855130 7691.323603 14997.988524 10944.431173 7451.991226 6292.211900 18857.485806 22388.474261 32050.070219 31364.984667 15170.315995 2897.989335 9650.584433 11314.935087 6881.758068 14475.640066 29584.571994 8823.410097 2481.939390 3634.405817 14911.094467 7226.185471 3035.039876 13511.356342 9952.951108 17033.536980 9522.959682 29087.516037 20176.127762 29617.288659 7082.006566 11017.153951 15258.956883 4803.788369 12963.185039 4388.736202 8141.701710 3287.052281 6759.912774 206.735504 207.066780 207.334706 207.554409 17916.931672 17921.012478 17904.080720 17853.053849 7894.072175 7565.625275 62555.594194 13837.220087 13416.971030 16070.406114 5781.150591 17731.715826 5880.276081 14286.764093 14224.322852 -6331.160759 8482.215701 7116.209161 23338.546309 13024.869314 13106.217919 5696.179504 16530.904609 22527.497962 16896.925735 7283.121774 19720.512271 7622.698762 17144.911720 7989.142375 10800.809612 14876.702530 18628.126096 15453.120282 12384.279942 13141.685111 2879.606544 15948.167294 26786.307207 14555.211684 11416.523766 4687.348796 22436.581262 4959.521769 150.303495 150.614579 150.866195 151.072524 17453.308000 17463.869002 17495.957785 17510.677485 15484.186560 8909.427161 1084.844063 7492.745929 3305.446239 15734.264339 3197.515918 24687.009397 23090.611078 -1745.713945 19168.108547 27783.897673 23321.665056 2944.930246 12232.298635 10178.038962 9292.419289 10062.199291 11495.780720 2687.550254 3015.891112 6557.475243 12356.730807 20582.289711 14972.595261 14624.167803 16481.983247 11775.534203 13830.599045 13469.920908 12356.871665 7025.126863 23174.729102 12642.392440 6444.314785 12297.992665 7397.858325 11289.585256 32276.023955 7015.041157 96.281011 96.572220 96.807775 97.000938 16961.042463 16941.107560 16897.550203 16827.747260 9512.023394 24757.157659 11559.172420 4994.805974 14390.563849 14757.454889 16277.401881 11746.521159 13385.288671 28085.253886 17843.057829 8195.004444 27601.161086 16801.802113 13811.138970 18023.499823 30814.971715 18231.592390 30199.521524 9497.724237 15121.555134 2690.621697 3755.555292 6307.731037 4680.999360 14775.717097 25560.663821 28415.701295 16294.779430 19683.020048 19479.929331 7281.086315 26397.898572 30034.308474 11585.164124 14465.309141 6903.931505 14176.223649 8021.876391 7788.451771 44.510461 44.782245 45.002103 45.182397 16443.290328 16363.803942 16120.478835 15804.579288 -5.161342 -4.908412 -4.703793 -4.535989 15923.056907 15811.227336 15453.369256 15015.719562 -52.882369 -52.647619 -52.457695 -52.301937 15418.031831 15391.672216 15345.564491 15139.929370 -98.794670 -98.577339 -98.401495 -98.257278 14893.771634 14915.653402 15001.287414 14884.601716 -143.033793 -142.833048 -142.670612 -142.537385 14343.770517 14341.242684 14412.367970 14358.619174 -185.728313 -185.543265 -185.393519 -185.270693 13812.155215 13696.001981 13401.677725 13116.234483 -226.999484 -226.829202 -226.691394 -226.578355 13380.645888 13264.632157 13047.375786 12885.838780 -266.960998 -266.804527 -266.677886 -266.574001 13041.014470 12937.734848 12763.198396 12712.343738 -305.718865 -305.575236 -305.458980 -305.363608 12761.627562 12684.879358 12560.867081 12570.660170 -343.371378 -343.239624 -343.132972 -343.045473 12500.563788 12471.822547 12486.538932 12651.466176 -380.009186 -379.888353 -379.790533 -379.710275 12212.528407 12209.372214 12258.544506 12400.814748 -415.715442 -415.604597 -415.514857 -415.441223 11884.063410 11880.224660 11898.957605 11939.465787 -450.566025 -450.464268 -450.381879 -450.314273 11531.476072 11517.199529 11490.045434 11441.826544 -484.629824 -484.536292 -484.460558 -484.398409 11177.116394 11163.166116 11120.846453 11022.983286 -517.969070 -517.882945 -517.813205 -517.755972 10830.558638 10837.256936 10855.961800 10778.226602 -550.639708 -550.560220 -550.495853 -550.443026 10483.609714 10501.248907 10547.298233 10485.321320 -582.691793 -582.618225 -582.558650 -582.509754 10132.291074 10144.667875 10174.735328 10066.777092 -614.169907 -614.101595 -614.046274 -614.000868 9784.589847 9771.548928 9719.838974 9509.881076 -645.113582 -645.049913 -644.998353 -644.956032 9461.383304 9430.044415 9326.458895 9096.029258 -675.557716 -675.498133 -675.449881 -675.410275 9174.968090 9156.423055 9127.053990 9004.336794 -705.532991 -705.476987 -705.431633 -705.394405 8914.044762 8882.856879 8782.428822 8627.539810 -735.066267 -735.013383 -734.970557 -734.935404 8681.126149 8663.614920 8623.997069 8487.978512 -764.180961 -764.130786 -764.090155 -764.056803 8465.993334 8452.557789 8440.703053 8350.105957 -792.897402 -792.849567 -792.810832 -792.779037 8265.020676 8227.547189 8130.617148 8014.315581 -821.233157 -821.187334 -821.150229 -821.119772 8096.468198 8052.905593 7951.160867 7847.227573 -849.203334 -849.159230 -849.123519 -849.094205 7965.033165 7927.521785 7849.381460 7781.467960 -876.820854 -876.778209 -876.743680 -876.715337 7860.298002 7828.027379 7760.630435 7707.966774 -904.096695 -904.055278 -904.021745 -903.994219 7773.300094 7740.058675 7670.891431 7627.417943 -931.040111 -930.999718 -930.967014 -930.940169 7704.911880 7678.485564 7630.702170 7597.529992 -957.658826 -957.619274 -957.587252 -957.560967 7655.084185 7637.191481 7608.888587 7566.697954 -983.959204 -983.920331 -983.888861 -983.863028 7623.791523 7611.901801 7588.809229 7532.142623 -1009.946400 -1009.908063 -1009.877026 -1009.851550 7613.297495 7608.394083 7580.672937 7502.463777 -1035.624494 -1035.586564 -1035.555859 -1035.530654 7621.153213 7644.440757 7698.890942 7684.564733 -1060.996612 -1060.958975 -1060.928508 -1060.903499 7624.238601 7678.328642 7818.390479 7848.556668 -1086.065030 -1086.027586 -1085.997276 -1085.972396 7594.610307 7633.556716 7694.048682 7640.071445 -1110.831278 -1110.793939 -1110.763714 -1110.738905 7536.663764 7570.163053 7634.846185 7602.320345 -1135.296235 -1135.258924 -1135.228723 -1135.203933 7454.739253 7488.603633 7575.527044 7612.483563 -1159.460217 -1159.422870 -1159.392640 -1159.367827 7350.238291 7368.102492 7406.416590 7444.951508 -1183.323074 -1183.285637 -1183.255336 -1183.230465 7237.855365 7248.417751 7266.225336 7298.419098 -1206.884279 -1206.846713 -1206.816307 -1206.791352 7125.851479 7130.038792 7093.223335 7066.769050 -1230.143031 -1230.105307 -1230.074775 -1230.049717 7005.315068 7031.470621 7083.488291 7127.551867 -1253.098354 -1253.060458 -1253.029789 -1253.004619 6839.181413 6838.666173 6804.066263 6818.922836 -1275.749212 -1275.711145 -1275.680337 -1275.655056 6633.739124 6604.008716 6484.995993 6422.024188 -1298.094629 -1298.056404 -1298.025469 -1298.000086 6419.890361 6405.277475 6385.361362 6383.281578 -1320.133817 -1320.095464 -1320.064419 -1320.038950 6196.603461 6179.334271 6162.319488 6184.950609 -1341.866328 -1341.827884 -1341.796747 -1341.771212 5962.499915 5936.059251 5907.082632 5914.884472 -1363.292212 -1363.253710 -1363.222481 -1363.196889 5726.101229 5687.032244 5615.036758 5547.103172 -1384.412213 -1384.373651 -1384.342261 -1384.316578 5502.506067 5453.909761 5349.621804 5256.080912 -1405.228025 -1405.189288 -1405.157480 -1405.131551 5303.202725 5269.761678 5210.326741 5139.312177 -1425.742664 -1425.703333 -1425.670379 -1425.643734 5119.309155 5090.386686 5009.395656 4906.143496 -1445.961132 -1445.920029 -1445.884037 -1445.855434 4945.989535 4941.583140 4935.038225 4861.097064 -1465.891733 -1465.845832 -1465.802096 -1465.768406 4769.356847 4767.995289 4753.462067 4689.123708 -1485.548954 -1485.490788 -1485.427822 -1485.381342 4588.663162 4601.552445 4623.701167 4567.138431 -1504.960028 -1504.871615 -1504.761633 -1504.683503 4397.670351 4423.250268 4486.441385 4473.233763 -1524.180034 -1524.019059 -1523.795087 -1523.638851 4191.402379 4202.721394 4220.924294 4222.470415 -1543.326038 -1542.996839 -1542.497214 -1542.146164 3985.105230 3995.581491 4025.685771 4042.913797 -1562.646781 -1561.957385 -1560.785392 -1559.935794 3786.876993 3791.354212 3791.138998 3769.400075 -1582.655351 -1581.330584 -1578.465103 -1576.290234 3603.556614 3602.699744 3589.863646 3552.350153 -1606.222164 -1602.996881 -1594.943156 -1589.292630 3440.005983 3440.644228 3454.038541 3451.556311 -1651.109260 -1632.319616 -1606.915116 -1594.339833 3295.893186 3284.194472 3269.715536 3288.237206 -1695.872889 -1647.156116 -1601.270162 -1583.921201 3179.322343 3164.847201 3131.290186 3127.942627 -1664.009044 -1607.634867 -1568.174612 -1552.988117 3091.472941 3088.687837 3096.848427 3100.519879 -1554.246243 -1532.368968 -1513.088984 -1503.410895 3021.127549 3017.567051 3021.216932 3034.818668 -1461.863849 -1454.866060 -1446.173848 -1441.212139 2964.731374 2965.831189 2965.825823 2970.843536 -1380.700418 -1377.981172 -1374.265288 -1371.956420 2916.308040 2927.524687 2965.191474 2995.256209 -1302.814206 -1301.689389 -1300.097776 -1299.065385 2868.415844 2869.230444 2867.598747 2883.458920 -1225.905913 -1225.409967 -1224.715022 -1224.251903 2830.384925 2833.457792 2844.837714 2884.122409 -1149.070604 -1148.831945 -1148.514278 -1148.297060 2804.982660 2823.226878 2879.340102 2949.266448 -1071.944937 -1071.813708 -1071.655257 -1071.543128 2785.123449 2806.008221 2840.537220 2877.488440 -994.382303 -994.297228 -994.207050 -994.140332 2772.240277 2800.982628 2862.023958 2935.239808 -916.326731 -916.263281 -916.204494 -916.158837 2767.874080 2804.409549 2878.147394 2963.625424 -837.761100 -837.711034 -837.670977 -837.638037 2772.957761 2821.398788 2911.223632 2986.103643 -758.684380 -758.648686 -758.628485 -758.609069 2784.794335 2847.598326 2953.497939 3003.157784 -679.098811 -679.088143 -679.103330 -679.107790 2794.028345 2873.285991 3016.972138 3071.728477 -598.996440 -599.039472 -599.132192 -599.188344 2783.459246 2874.359557 3035.732710 3069.492733 -518.333740 -518.500791 -518.773429 -518.947836 2735.871474 2828.418818 2995.872902 3003.141545 -436.972196 -437.436502 -438.133655 -438.580479 2645.293106 2709.631545 2822.610969 2814.529398 -354.528664 -355.733200 -357.435817 -358.497750 2531.947825 2565.595253 2597.469189 2522.772689 -269.968430 -273.140243 -277.204515 -279.576925 2419.012233 2450.936526 2513.307808 2475.626069 -180.343340 -189.417824 -198.780651 -203.582459 2306.620310 2330.622866 2381.790003 2309.249406 -75.864574 -106.954831 -125.320785 -133.575100 2197.149666 2190.663808 2144.652454 1985.897739 1814.392311 1738.933611 1802.256218 1839.077678 1873.030160 1902.303700 1929.408567 1954.472467 1977.283570 1997.559938 2015.026914 2029.432417 2040.547547 2048.165727 2052.103273 2052.201202 2048.327485 2040.379075 2028.283339 2011.998711 1991.514553 1966.850275 1938.053807 1905.199561 1868.385979 1827.732821 1783.378285 1735.476074 1684.192498 1629.703676 1572.192911 1511.848256 1448.860321 1383.420309 1315.718315 1245.941844 1174.274563 1100.895224 1025.976727 949.685162 872.178599 793.604982 714.097709 633.765447 552.667851 470.756241 387.723520 302.596711 212.476546 107.626911 15.842429 -35.039356 -62.200848 -73.652131 2111.166308 2092.716686 2039.152682 1940.217192 1857.554273 1826.548645 1831.525580 1851.931172 1877.454119 1903.984408 1929.889862 1954.386986 1976.909742 1997.026150 2014.393842 2028.729727 2039.790922 2047.364844 2051.265483 2051.333151 2047.435743 2039.470305 2027.364263 2011.075996 1990.594675 1965.939388 1937.157638 1904.323320 1867.534304 1826.909738 1782.587196 1734.719766 1683.473158 1629.022932 1571.551869 1511.247551 1448.300169 1382.900563 1315.238515 1245.501283 1173.872349 1100.530384 1025.648364 949.392804 871.922950 793.389691 713.933552 633.680387 552.731617 471.142474 388.877869 305.753576 221.587612 138.829388 66.801204 15.887782 -14.460619 -27.606667 2058.338504 2039.980928 1998.058082 1939.810234 1887.080877 1857.602069 1852.183454 1863.103349 1882.783433 1906.270486 1930.718084 1954.509876 1976.680548 1996.610558 2013.870051 2028.135341 2039.144985 2046.678185 2050.545524 2050.586067 2046.667361 2038.686423 2026.570695 2010.278503 1989.798865 1965.150607 1936.380877 1903.563137 1866.794769 1826.194404 1781.899080 1734.061350 1682.846411 1628.429332 1570.992440 1510.722907 1447.810554 1382.445900 1314.818461 1245.115280 1173.519701 1100.210374 1025.360482 949.137231 871.701680 793.209146 713.810787 633.657819 552.912047 471.772188 390.542029 309.815997 230.993532 157.272704 94.035525 46.279357 15.920230 2.319573 2036.003989 2019.428952 1984.290761 1938.641027 1896.638376 1869.998204 1861.990253 1869.151439 1885.959999 1907.713855 1931.223002 1954.523800 1976.433172 1996.216262 2013.385498 2027.589048 2038.552078 2046.047680 2049.883854 2049.898723 2045.959609 2037.963544 2025.838017 2009.541337 1989.062401 1964.419818 1935.660422 1902.857291 1866.107370 1825.528813 1781.258169 1733.447501 1682.261525 1627.874855 1570.469395 1510.231927 1447.351926 1382.019608 1314.424227 1244.752618 1173.187976 1099.908888 1025.088637 948.894859 871.489795 793.031687 713.678711 633.598699 552.992259 472.146440 391.554801 312.165386 235.799023 165.549831 105.513405 59.445231 29.533954 15.932133
</DataArray>
<DataArray type="Float64" Name="Velocity" NumberOfComponents="3" format="ascii">