<VTKFile type="PolyData">
<PolyData>
<Piece NumberOfPoints="2064" NumberOfVerts="2064" NumberOfLines="0" NumberOfStrips="0" NumberOfPolys="0">
<PointData>
<DataArray type="Float64" Name="Pressure" format="ascii">
 5480.611974 5448.343082 5378.836568 5270.218829 5119.026768 4918.405309 4665.977278 4377.691938 4090.983243 3836.500234 3619.660342 3433.135915 3268.939011 3121.074456 2985.074891 2857.466711 2735.486759 2616.942350 2500.133727 2383.799382 2267.067826 2149.409407 2030.586398 1910.601864 1789.648938 1668.062506 1546.275136 1424.778611 1304.091842 1184.735303 1067.211709 951.992244 839.507519 730.142324 624.233301 522.068749 423.889886 329.893062 240.232502 155.023318 74.344588 -1.757600 -73.267207 -140.195409 -202.577833 -260.471764 -313.953075 -363.112311 -408.048622 -448.858603 -485.613969 -518.318036 -546.836755 -570.846004 -589.914450 -603.753384 -612.359277 -616.062720 5506.103247 5475.766662 5411.419904 5314.241372 5181.214211 4995.620815 4736.899555 4412.039669 4093.509449 3832.537164 3618.694366 3434.408939 3270.921449 3122.990010 2986.620685 2858.571125 2736.176390 2617.282477 2500.201847 2383.673112 2266.819072 2149.101427 2030.272385 1910.324477 1789.440534 1667.945894 1546.264686 1424.881576 1304.309736 1185.065239 1067.647606 952.525867 840.129317 730.842092 625.000661 522.893491 424.762195 330.803649 241.172678 155.985018 75.320371 -0.774578 -72.283232 -139.216284 -201.609017 -259.518673 -313.021766 -362.211072 -407.191659 -448.074255 -484.961300 -517.911864 -546.847364 -571.383476 -590.827360 -604.727179 -613.228895 -616.859740 5561.679568 5533.612300 5476.117728 5399.164538 5314.549246 5179.247574 4920.549696 4469.544934 4058.731513 3810.506240 3612.765828 3433.638218 3271.999548 3124.436565 2987.917488 2859.551746 2736.819366 2617.625361 2500.303890 2383.598569 2266.629477 2148.851886 2030.009813 1910.086938 1789.257284 1667.837925 1546.245617 1424.958734 1304.485325 1185.337486 1068.011809 952.975305 840.656005 731.437368 625.655634 523.599353 425.510435 331.586185 241.981925 156.813924 76.162415 0.074592 -71.432489 -138.369150 -200.770504 -258.694063 -312.217642 -361.437777 -406.469178 -447.446294 -484.528624 -517.907316 -547.764184 -573.734449 -594.225100 -608.020531 -616.042215 -619.384670 5645.169752 5618.663538 5561.226529 5483.963511 5437.585288 5343.945498 5181.213901 4391.151666 3899.669974 3804.565654 3609.702176 3434.774833 3273.688334 3126.115795 2989.315388 2860.589883 2737.508504 2618.013454 2500.451880 2383.569141 2266.481657 2148.638338 2029.775499 1909.868591 1789.083449 1667.729428 1546.216336 1425.016574 1304.633273 1185.574662 1068.334448 953.377614 841.130883 731.976977 626.251834 524.244020 426.195672 332.304461 242.726155 157.577503 76.939228 0.859002 -70.645679 -137.584762 -199.993121 -257.928331 -311.468975 -360.714050 -405.784905 -446.833361 -484.066027 -517.815303 -548.775415 -578.858867 -601.719602 -613.990052 -620.622942 -623.338797 5754.209309 5732.544763 5668.779068 5530.478475 5308.327341 5294.581681 4262.697759 5770.797114 5302.086980 5370.279295 6102.970864 6204.085822 5900.057019 6071.857592 5950.583372 5275.083757 5246.034814 6029.043973 6477.181155 6235.978964 5670.099183 4955.305137 6054.095194 4504.348300 6378.008544 5510.065762 6445.919714 4298.941394 6255.079659 6046.711969 6538.689930 4912.909196 6397.396486 6145.820978 4883.103834 5269.265385 6094.569321 3985.253260 4707.721738 5650.204063 5621.744832 5200.965481 4628.026602 4346.220243 -615.606242 -622.133116 -626.248722 -628.041944 5882.210682 5880.111946 5853.117309 5685.615398 5334.906047 6175.379865 6538.700082 5563.027331 5729.713988 5977.732616 5615.346627 4419.724195 5940.188656 4476.213034 5888.667666 5398.287684 5714.402450 6338.009635 6231.912677 5281.534122 6953.634510 5829.957161 6353.243359 4952.208008 5914.822766 5689.489611 6395.555041 6796.071829 5983.092693 6101.690684 6167.056511 6241.100962 6053.045881 5935.034501 6273.956543 5558.911160 6801.435459 6802.503493 3781.356613 5270.161818 4894.205070 5627.382076 4605.359596 6228.300213 -628.022772 -629.709264 -631.610889 -632.527029 6008.070183 6030.800205 6122.674554 6179.467135 6344.896239 5925.385453 5012.465750 5060.169713 5451.076251 5877.886749 4415.663509 5918.186262 5867.540689 5581.924364 5048.407605 5040.487796 6187.504947 4405.077124 4780.486142 5188.476605 5053.507989 4869.145800 5361.344955 5194.989226 4730.269682 5253.968737 5779.760898 5136.044952 6311.763803 6000.109553 6131.430140 5040.444394 5766.837737 6398.086820 5576.691903 5921.568195 5429.311957 5851.069239 5326.557267 5372.319516 6069.424009 5947.028777 4823.223061 4908.078106 -634.465535 -634.862872 -635.539899 -635.880603 6105.302931 6115.288565 6153.661590 6192.232206 5796.064462 6115.264776 3987.399895 6402.939862 4923.564481 4376.413532 5268.601680 4352.230154 4782.960385 4746.924553 4986.886060 4203.566074 4637.083487 5171.390764 5720.962684 6201.491939 4443.945414 4902.393730 6321.787064 5491.089960 5628.542078 6190.855943 5057.415194 4377.794475 5944.849101 6355.981780 4242.789974 5228.462983 5393.415874 5857.358446 4038.893994 5704.373110 5466.889363 4886.785182 5636.604237 5565.290394 5977.292248 4942.780729 6513.678711 6038.307472 -637.346842 -637.319775 -637.467232 -637.512973 6171.229627 6164.005960 6113.504653 5939.189755 5041.105697 4877.440984 4663.571812 4759.672182 3981.342641 3990.895416 5220.070977 4748.111468 4577.327993 5066.692306 4803.727480 4475.725097 5033.998209 4932.130900 4732.973580 4966.753746 4707.321868 4175.669419 4575.222630 4816.639300 4901.678894 4191.817042 5876.025671 4327.278279 5260.020315 5290.295662 4709.041365 4505.522488 5687.520383 3528.236686 4808.981211 5584.980830 5495.764450 4749.171827 4778.889166 4362.272055 4206.045448 3952.181891 4430.239578 7121.619771 -637.491841 -637.316372 -637.248567 -637.164713 6205.940449 6205.420734 6262.585212 6380.528856 5166.322134 4830.299185 4626.409539 5151.652151 4661.228771 4884.395513 4809.702313 5428.689173 4464.327316 4088.414230 5214.593540 4806.043355 4657.575165 3578.639815 4328.258979 5172.202823 4356.331697 4959.702090 5671.790303 4681.559111 4644.208202 3555.075222 4899.515820 3768.780209 4275.220071 4550.705376 4245.363107 4887.326081 4947.131869 4246.577414 4731.131469 5405.942999 4974.182349 4793.270176 4388.609866 4778.638126 4287.713424 4659.683399 4698.476247 4945.782186 -635.292474 -635.068498 -634.918845 -634.784934 6198.992838 6172.560621 6159.310128 6277.420123 4805.677417 4879.574374 5497.820399 4716.917484 5484.374024 4487.120598 4237.746364 5189.958278 4911.422390 4003.638475 4691.766515 4928.858558 4103.300299 4537.000765 4696.671764 3766.767633 4940.309213 4000.059171 5321.682198 4449.460837 5195.384383 3941.817386 5186.339965 4633.384780 3127.249648 3593.695230 4497.096792 3451.557672 4778.609745 4069.742582 4217.993369 3507.605881 5481.682242 4009.486851 4560.176300 3434.122371 3786.089362 4896.012705 5906.411497 4799.626028 -630.983765 -630.749818 -630.573797 -630.424868 6171.062396 6109.924526 6007.032522 6034.714877 3955.743414 4554.453300 8772.485441 4330.012851 4211.970337 7684.470176 4481.423085 5089.182049 4470.851383 5359.398136 4671.004077 4817.974882 3724.732056 4346.638788 4744.814219 4140.203887 4479.228904 4282.674803 4491.042871 4649.752335 5515.306970 5823.875680 5795.016283 5443.001201 5830.572211 4581.669361 5176.683133 5565.606704 4207.611846 3412.745136 4451.288110 3681.297258 3804.609686 3084.520824 2998.555868 3616.809786 4197.296157 4100.347298 3572.885177 5047.515757 -624.735655 -624.506701 -624.326978 -624.177664 6156.538377 6079.635912 5899.005333 5713.972709 7850.729545 4881.740844 19517.006542 12839.911796 5946.657146 26361.784858 23023.511395 11764.152535 7724.076214 8296.871083 5761.725004 7084.314246 6229.779607 4162.279047 3984.343622 3996.060519 4183.924759 3840.348882 5475.954269 3845.576719 4502.905943 4397.863640 4802.963523 5573.319900 5056.500354 4852.089745 4307.365615 5758.067240 4740.351188 5300.658157 4983.716563 5105.097301 4062.216187 4808.616767 4335.336855 4089.393524 3816.193313 3241.874495 3011.867071 2916.340478 -616.686519 -616.468012 -616.293479 -616.149501 6168.051547 6117.443540 6034.108394 5977.069138 28736.602590 21171.755954 91.974508 21779.855355 24876.442992 16127.913738 21637.630988 27047.847712 24889.072924 23645.393660 27648.345790 8738.552471 15334.932390 7741.215554 17304.296151 5660.383564 4940.724565 5798.529521 4129.829921 4597.693294 4127.987187 4532.947055 5326.407571 5051.091713 4318.148046 4211.575708 4720.405874 4165.568548 4709.017381 4608.694863 5029.685164 4890.615295 4582.613829 5263.582074 5548.079214 4589.003275 4359.189852 3213.655244 3313.016387 2274.117924 -606.955987 -606.749415 -606.583159 -606.446408 6181.143035 6154.393541 6109.206940 6033.765556 24252.365672 28004.976668 1279.632203 17354.555758 25995.237142 1423.033742 3762.960351 19545.250052 23678.645254 26563.626880 -456.787687 22335.221093 19988.475908 27272.143741 27327.557754 16171.426133 22950.697870 18269.903933 15370.964717 10578.592084 9685.721197 5368.955217 4179.738930 4589.350631 4403.904014 4517.292376 4794.606575 3998.536966 4426.429322 4188.432662 3829.699956 4027.543933 4877.276994 3892.741569 5538.066930 5936.153093 4874.438406 4711.005120 5463.338703 4192.533194 -595.649641 -595.454772 -595.297392 -595.168088 6177.118736 6160.381475 6174.264107 6293.386196 5798.581653 22717.770319 844.064294 1276.361442 3999.745717 879.994762 2064.340446 8408.035763 25365.740280 26240.009525 1723.245212 21450.294463 24075.254656 10497.009749 20981.302860 15128.962088 20013.334592 28682.275736 27008.441175 23947.628559 24703.902219 19402.673242 6013.306217 17264.995841 7956.407463 6364.472992 5713.597274 4663.562821 4928.189642 4647.773007 4202.475972 5578.428934 4939.048501 4755.287334 4348.901384 4313.044070 5242.181350 5204.977189 5592.417754 5604.556615 -582.860258 -582.676033 -582.526990 -582.404575 6159.143048 6137.352875 5998.301623 5679.914815 14027.993698 1198.967224 -717.988916 202.736113 23327.267418 249.022667 -45.481053 11710.585252 2850.328442 2336.005331 3033.356464 6922.978817 2026.641337 1927.013052 2109.721156 12539.844321 2033.458674 8421.734046 23776.487884 3473.332274 11644.537854 18067.590033 27179.887555 26983.701229 25870.248305 18217.591862 9807.914195 21149.074496 22801.582161 13400.065225 4925.827209 4220.904606 4622.461052 5039.115660 4572.646163 3839.439238 3921.352623 4163.818915 4242.878982 4087.878831 -568.667275 -568.492114 -568.350256 -568.233725 6141.217790 6171.018339 6320.704595 6595.000702 1178.464420 2367.089866 -347.623476 4837.129534 1187.627107 10589.274330 12899.882322 4115.638520 -10.709426 12565.227989 1802.309449 1595.066768 -414.768636 2859.934557 5815.466105 -132.025894 3698.068895 1845.903467 8395.326827 -706.145134 13329.685133 3595.031663 4760.152411 19473.293150 23218.006898 15031.211571 17836.632137 17354.214407 29055.345023 23230.672704 23745.344183 12702.747183 5969.507590 6137.219540 4799.407431 4567.717091 5031.870755 4296.971594 3885.037525 3606.269013 -553.134988 -552.966840 -552.830544 -552.718531 6105.780637 6131.616591 6162.740151 6297.258212 105.717672 563.938756 2064.219686 375.311067 1121.773551 2521.958031 99.799714 383.105305 1224.739240 -569.824869 1253.631987 527.889362 303.968435 24571.948958 1647.605593 620.118173 -6.192544 552.246343 645.059210 -219.489099 1726.293737 3599.053620 4180.899308 1547.787314 2124.840428 672.175674 3460.572740 6014.756268 7002.579091 24954.443374 22617.368445 25882.521477 21149.324592 13536.125794 10065.437153 5792.361841 3720.729330 4435.407248 6102.782075 3723.621281 -536.309488 -536.145739 -536.012886 -535.903622 6071.594751 6107.233058 6216.899555 6427.051739 24089.951514 -1307.750975 -12822.575520 492.623299 -300.438341 2648.878365 804.512616 704.646569 88.041109 999.417376 1076.303382 121.987083 -324.162591 888.913601 -692.173114 804.530594 898.795871 655.578857 -22.955314 425.108729 999.871902 1247.440993 605.191316 1036.391161 1419.881897 4262.269508 472.199397 1869.535797 3730.471880 14432.317876 7123.060769 1917.777627 10828.519508 19514.555324 22708.151577 18109.443711 7005.568522 4620.438144 5761.868847 5072.581196 -518.214149 -518.051452 -517.919312 -517.810530 6056.821816 6078.295521 6100.783207 6165.201680 -1417.017368 -616.482096 -2764.366093 -170.803890 147.202356 -15817.897219 8176.546249 -10994.144167 505.275467 2267.099301 3537.815067 -3387.883354 -17590.572714 8136.439270 -27136.200940 -1706.507665 418.397973 1649.266786 2865.995044 -82.670380 71.944430 976.743373 -30.289541 166.123974 768.117624 1346.544282 782.925441 1182.642883 711.255187 131.744157 1572.988023 853.624926 2289.120417 4647.680770 8308.289299 12743.090621 21043.315181 8874.709024 9794.831808 6538.921528 -498.843495 -498.677571 -498.542652 -498.431461 6086.819544 6116.333979 6147.066143 6071.444864 -60.610537 2504.261006 1376.256392 -19043.005371 -20445.269572 -14259.591051 188.032985 6385.757682 433.104872 4058.943494 1286.916124 1113.868454 -14463.462663 -3733.854061 1151.855787 -15728.767810 -15090.674483 3080.693094 3766.315158 -12986.336272 -234.194474 63.133752 398.359338 -29.162021 8146.603115 1305.862741 -2652.192206 576.979040 1979.893739 3389.366709 2261.113908 3973.696630 2953.216480 985.971053 1575.502094 -1.111558 15475.444871 23858.443207 22631.050813 18102.064921 -478.155465 -477.980917 -477.838830 -477.721605 6153.117503 6221.844317 6318.005109 6085.628247 -3497.762410 803.919863 -6052.687181 -21.834688 -10558.395217 -12667.672271 2776.551013 -11219.624620 -2065.928553 -2193.127206 -8216.147152 185.076755 -12451.633067 1036.268040 1315.624985 -5424.733972 3541.253416 -8260.748145 -2683.317478 -3192.137053 -3633.801013 -10981.044930 1392.353114 1809.064318 1828.575780 -245.410035 -970.809217 5575.677722 -38.477197 190.697255 379.339367 -827.146753 -883.055588 2005.653693 945.963686 1811.227370 1788.175378 1211.481882 11406.828647 18483.011741 -456.062479 -455.872707 -455.718109 -455.590459 6208.568015 6316.625726 6684.401979 7193.561140 3994.481920 -17663.300034 -18075.689824 -11689.724009 -9073.464875 -20505.103982 -28571.454658 -10022.924308 -18690.231329 -11066.841104 -15221.037530 -11703.024762 -15497.486135 -2885.449321 -15333.595553 -12643.927559 -35397.783915 -12822.575520 -13383.132536 -6610.466755 -2625.470081 -8696.619098 1207.451615 -4382.883800 -11074.191585 -4304.708327 2974.211940 667.016596 286.191252 7295.516198 1544.147969 -678.989391 1799.633259 818.684918 1753.571975 1669.645824 3845.716858 4850.126334 4417.023802 2028.687787 -432.422392 -432.209714 -432.036425 -431.893302 6218.843287 6260.139829 6322.171657 6315.923497 -407.031388 -406.787519 -406.588951 -406.425013 6226.454509 6227.354098 6164.130339 5955.741759 -379.622173 -379.339291 -379.109351 -378.919735 6256.089041 6267.827556 6235.178542 6034.377046 -349.872592 -349.545259 -349.279999 -349.061685 6288.211526 6327.466982 6475.980385 6630.486237 -317.431892 -317.060208 -316.760552 -316.514613 6293.083008 6306.483798 6285.698166 6173.770944 -281.974309 -281.568853 -281.244983 -280.980138 6274.150559 6296.815725 6328.906862 6169.853778 -243.292354 -242.881775 -242.560236 -242.298475 6209.206044 6240.390383 6360.060214 6616.557211 -201.444594 -201.087553 -200.823342 -200.609222 6081.748472 6068.553204 6123.292640 6429.145599 -156.974513 -156.779792 -156.678829 -156.596112 5927.518853 5830.316132 5561.379646 5220.557879 -111.218073 -111.382212 -111.647204 -111.851491 5813.473058 5697.746600 5426.508299 4843.027398 -66.713410 -67.599092 -68.630587 -69.417805 5757.995529 5661.312366 5537.949000 5586.046692 -27.682549 -30.000913 -32.635655 -34.591309 5739.227252 5622.911917 5355.631922 5167.370220 -0.352798 -5.667514 -11.782325 -16.100944 5742.175231 5631.919226 5321.388408 4748.248717 7.693989 -4.743304 -18.819498 -27.814708 5725.471905 5649.004122 5504.055258 5272.986758 -8.153993 -42.046847 -74.248164 -90.887251 5663.091852 5565.940801 5449.178769 5755.853708 -40.903258 -146.293514 -214.947864 -232.923545 5600.409685 5467.042552 4956.326015 3876.572984 -87.991708 -509.069461 -487.889591 -469.099508 5574.212051 5538.197921 5625.404594 5685.666367 -1544.082145 -1091.831699 -844.519128 -761.710258 5531.943744 5483.845070 5368.881044 5224.830681 -2656.256635 -1416.382821 -1137.936193 -1029.073401 5484.510388 5442.634615 5401.992349 5507.989784 -1737.114286 -1499.367361 -1302.596583 -1213.988497 5443.974821 5396.320128 5238.719914 4909.996697 -1559.255733 -1468.115897 -1365.116303 -1309.579305 5420.662223 5383.946734 5394.400701 5450.772707 -1458.605668 -1417.749086 -1366.527312 -1336.060915 5414.521301 5345.589872 5043.645409 4277.569721 -1376.468972 -1356.656186 -1331.169365 -1315.179448 5433.958770 5429.809525 5461.320903 5446.283983 -1293.585195 -1283.300804 -1270.331215 -1261.894433 5432.861795 5446.072695 5535.299529 5577.933631 -1202.567389 -1196.847057 -1189.984730 -1185.373313 5396.061949 5370.322448 5307.230713 5320.679474 -1101.343274 -1097.950651 -1094.142590 -1091.497509 5356.940156 5318.983455 5169.520287 4762.837993 -990.418368 -988.323245 -986.124065 -984.547303 5318.159222 5318.736106 5367.778526 5420.816325 -871.550875 -870.266324 -868.987674 -868.046919 5245.258765 5236.208446 5365.478004 5806.909976 -747.041398 -746.323738 -745.628211 -745.108638 5145.269167 5035.826720 4828.298170 4669.676036 -619.321002 -619.032345 -618.741933 -618.526837 5082.780811 4907.475835 4431.780335 3897.199528 -490.695201 -490.741179 -490.748256 -490.763380 5087.434233 4956.285038 4614.986956 3980.776472 -363.179217 -363.482156 -363.709353 -363.898073 5103.565339 5069.097251 5019.164520 4923.502845 -238.396311 -238.885283 -239.268659 -239.581989 5058.582836 5041.315003 5183.924656 5681.608655 -117.527009 -118.135835 -118.619069 -119.012678 4977.228931 4854.283383 4378.647169 3558.279258 -1.302917 -1.971699 -2.505312 -2.939716 4958.331052 4921.688376 4735.684346 4168.251788 109.960053 109.282145 108.739504 108.297510 4959.604897 5028.465684 5375.628948 6169.984984 216.294951 215.646810 215.126521 214.702179 4938.879417 4965.541591 5003.923989 5006.122424 317.990563 317.396823 316.918642 316.527804 4938.040629 4953.431001 4891.010421 4642.647843 415.479524 414.949055 414.520001 414.168182 4965.803906 4985.235144 5128.252791 5434.097414 509.215788 508.741098 508.355009 508.037001 5010.952588 4995.552283 4766.161770 4360.818678 599.549166 599.106657 598.744385 598.444422 5067.996449 5100.347840 5274.575437 5800.194771 686.603819 686.154773 685.784925 685.477298 5099.719423 5116.982242 4962.895917 4406.731311 770.166626 769.658714 769.238728 768.888694 5088.774139 5137.613204 5336.653070 5628.746152 849.590259 848.959245 848.436405 848.001127 5024.187457 5014.184593 4867.296119 4234.867359 923.714655 922.885666 922.197268 921.626185 4946.389215 4928.031843 4835.604235 4733.759573 990.809358 989.696383 988.767229 988.000639 4893.151075 4903.219404 4940.976093 4812.276489 1048.538250 1047.038920 1045.771979 1044.734960 4868.401625 4885.135739 4939.813316 4913.365298 1093.949652 1091.928514 1090.178735 1088.763758 4870.006123 4894.889331 4878.552630 4482.086799 1123.504925 1120.748660 1118.255265 1116.277336 4873.703838 4923.757971 5153.255722 5380.611754 1133.193049 1129.294595 1125.509081 1122.593901 4836.956604 4820.200185 4745.991037 4923.238184 1118.873658 1112.925049 1106.573410 1101.885145 4782.048087 4721.348271 4702.357211 4768.116737 1077.241887 1066.969286 1054.935767 1046.550703 4728.525461 4561.343316 4182.074176 3829.941818 1008.506274 987.594589 962.109149 945.796827 4727.008887 4529.659613 3977.561083 3134.592419 924.492089 872.574889 814.758148 782.812955 4776.633688 4664.855773 4412.101525 3972.825458 871.806324 716.507812 584.491661 531.929611 4802.263575 4763.650195 4629.066174 4344.222743 969.433595 400.448047 212.243150 167.769417 4769.757856 4782.866940 4941.609795 5470.181007 437.204331 -405.689398 -343.504984 -288.836780 4700.964505 4687.517067 4585.462370 4415.993072 -2557.568898 -1359.428405 -874.380331 -728.043113 4653.607825 4615.287968 4596.701372 4689.333571 -3043.189583 -1602.733847 -1188.630974 -1040.606378 4691.385708 4579.014094 4340.602850 3877.001888 -1736.154162 -1494.594743 -1298.491751 -1209.637391 4876.083102 4693.229599 4243.188974 3655.772333 -1359.371846 -1341.118994 -1313.483193 -1296.060924 5246.236815 5108.825267 4694.093150 4020.072392 -1054.696377 -1216.992835 -1339.664914 -1390.004711 5747.566170 5731.464139 5934.882874 6458.136153 -819.381678 -1202.039693 -1514.491790 -1577.388462 6297.760136 6263.599205 6143.227942 5728.315783 -1574.839533 -1789.382176 -1947.675986 -1871.490077 6904.045172 6908.831486 6948.359265 6813.457450 -4416.947783 -3030.597932 -2334.267319 -2145.522503 7552.873448 7562.526843 7640.351961 7841.630342 -4170.138453 -3057.322311 -2478.856341 -2297.038824 8246.562388 8244.146783 8091.536590 7497.344911 -2984.048285 -2759.590742 -2473.599496 -2328.332621 9002.695985 9020.342452 9303.643817 9988.824197 -3053.039961 -2699.203920 -2412.336444 -2285.753575 9859.099725 9774.236114 9446.704548 8805.678581 -3382.820918 -2570.043464 -2311.580698 -2201.285265 10926.106926 10833.165724 10808.693569 10801.785035 -2659.228329 -2362.335258 -2184.321735 -2101.167096 12262.100301 12113.257183 11530.199439 10431.529112 -2286.976968 -2201.705124 -2084.438455 -2018.632566 13894.188821 13918.060893 13915.742856 14018.646573 -2281.482298 -2201.619858 -2059.809712 -1976.033327 15702.289865 15889.887305 16321.384737 16934.389061 -2641.735344 -2408.609383 -2104.813629 -1956.755425 17562.990869 17904.622794 18509.177179 18579.345570 -3276.910035 -2702.172043 -2094.772204 -1905.838330 19355.595736 19871.112183 21397.982509 24091.710140 -2861.115692 -2527.583259 -1962.674445 -1787.431919 20992.940165 21419.744180 22341.105280 24301.456286 -2158.531415 -2056.047856 -1762.233933 -1618.604635 22514.695447 22947.302088 23744.104186 23917.299456 -2073.134913 -1808.137922 -1573.805948 -1430.428578 23800.540912 24318.227196 25767.383585 28197.636502 -1913.260039 -1827.007863 -1428.426918 -1209.828697 24654.727426 25018.897030 26003.683404 27905.312255 -3091.641693 -1991.077186 -1168.103058 -866.727899 25087.180708 25140.567337 25255.889130 25932.960847 -3513.957192 -1360.696374 -578.975173 -312.506380 25298.235547 25077.352996 24330.686862 23226.462580 -443.597009 -22.912069 271.361086 418.417458 25496.261818 25243.692240 24590.305998 23360.825813 24670.200611 25128.902515 20557.165436 22926.261637 19692.879229 14597.331573 12160.844607 10014.839290 9941.121616 9010.299125 7449.117347 6818.110350 623.173229 3980.592341 4368.968795 2460.679488 5407.674285 6420.190038 3357.243042 1799.699536 1535.997145 2184.384045 1176.611678 1181.326592 1491.594411 1115.999294 308.794753 206.637567 -291.191697 446.872181 1251.643218 633.842031 528.492991 362.194350 104.918219 16.565518 519.228415 1356.370590 1779.253282 2169.712398 2510.041024 2758.849935 2916.803757 3345.507577 3629.045505 3370.257501 3283.960033 3243.549634 2898.063396 2163.949411 1388.520534 1138.113545 1151.582869 1184.437435 25706.678231 25523.740496 25179.040688 24694.359369 24439.720053 23325.067779 21413.124325 21635.944497 18260.116868 15399.506531 13731.652507 11303.159618 10584.120192 9999.574112 8571.320977 6986.667615 5095.002807 5097.033908 4830.130090 4037.370225 4474.558368 4619.154127 3439.270015 2577.923735 2038.223273 1696.222701 1397.887146 1182.974753 1040.434492 779.384330 517.988570 364.972735 348.105273 492.940323 602.407557 596.906013 553.851305 517.838270 528.301883 652.738104 946.838449 1380.181938 1795.058106 2168.129297 2495.756640 2781.003774 3042.293617 3271.609488 3401.176558 3428.061653 3404.314473 3288.309864 3018.844480 2610.098822 2196.113360 1953.946430 1862.266771 1833.750315 25860.612099 25714.955560 25434.519146 25006.803812 24354.275284 23344.763667 22066.900937 20536.940905 18491.601123 16424.742524 14613.228871 12950.613260 11567.452613 10298.967375 8986.739044 7701.399439 6618.029291 5875.662729 5319.752876 4879.409957 4525.507337 4051.042091 3382.758208 2705.177694 2156.438307 1738.651147 1409.727817 1150.303255 931.955126 729.524179 559.597871 457.545604 440.744607 491.142811 549.480074 577.452995 589.652891 616.862061 694.925835 859.944679 1125.843519 1465.172218 1827.025543 2176.540776 2498.811200 2789.380883 3046.808346 3259.684686 3403.749946 3468.220776 3455.361834 3353.635477 3155.553593 2888.660419 2623.194214 2428.323317 2317.718832 2267.015663 25919.651840 25778.262487 25501.530245 25044.099127 24343.750471 23346.062532 22050.105863 20465.106995 18635.696437 16744.474903 14956.329263 13337.008860 11887.438638 10542.455818 9252.225675 8047.192033 7014.172391 6201.735394 5560.906820 5027.346976 4532.599300 3984.873333 3361.602660 2740.575278 2201.029241 1765.721345 1420.300600 1144.039999 916.750637 726.703373 580.569483 493.835674 471.801303 497.848281 539.557719 574.983526 608.352563 661.963286 764.279166 939.016805 1191.944044 1504.380346 1843.470300 2180.493420 2498.204726 2787.889993 3042.858856 3251.880219 3399.414812 3473.695589 3468.673649 3380.660473 3215.748987 3002.000137 2787.280176 2615.777864 2504.690373 2447.257412
</DataArray>
<DataArray type="Float64" Name="Velocity" NumberOfComponents="3" format="ascii">