<VTKFile type="PolyData">
<PolyData>
<Piece NumberOfPoints="2064" NumberOfVerts="2064" NumberOfLines="0" NumberOfStrips="0" NumberOfPolys="0">
<PointData>
<DataArray type="Float64" Name="Pressure" format="ascii">
 2338.445751 2374.956751 2418.985331 2428.722422 2348.002607 2162.291226 1938.118352 1770.876749 1711.796171 1755.369542 1865.286577 1999.925191 2127.674375 2230.827197 2302.276694 2341.065666 2349.430812 2331.178462 2290.781477 2232.836499 2161.721178 2081.380999 1995.210177 1906.003457 1815.960241 1726.725065 1639.450750 1554.873148 1473.389002 1395.130917 1320.035632 1247.903512 1178.448527 1111.338902 1046.229148 982.784504 920.698864 859.707224 799.593578 740.195035 681.402824 623.160757 565.461649 508.342210 451.876931 396.171648 341.357823 287.589382 235.045922 183.950341 134.617369 87.560610 43.675190 4.403755 -28.417150 -53.187366 -69.063635 -76.156001 2394.668154 2442.611177 2521.199201 2580.471194 2510.727066 2249.874214 1919.493188 1690.058682 1620.138771 1680.146189 1814.751574 1969.739564 2109.374618 2218.409055 2292.821835 2333.403613 2343.125936 2326.060248 2286.751948 2229.800537 2159.568025 2079.985567 1994.440704 1905.729852 1816.060931 1727.091693 1639.990780 1555.510730 1474.064531 1395.799730 1320.666197 1248.475418 1178.950478 1111.766836 1046.584568 983.073030 920.929013 859.889390 799.739180 740.315812 681.510248 623.265538 565.573310 508.468674 452.024004 396.342148 341.549710 287.791477 235.227970 184.040768 134.457748 86.833217 41.879940 1.113549 -33.019402 -58.386230 -74.333921 -81.371809 2473.453612 2543.459401 2695.979813 2916.094788 2936.753086 2442.293408 1812.145172 1458.583141 1395.725530 1510.392207 1715.695481 1921.691694 2085.935400 2204.717595 2283.436093 2326.235265 2337.384444 2321.439440 2283.109145 2227.034898 2157.579754 2078.667079 1993.679375 1905.413886 1816.084976 1727.361000 1640.423698 1556.039703 1474.635934 1396.372905 1321.212004 1248.974562 1179.391793 1112.145666 1046.901303 983.331832 921.136726 860.054631 799.871577 740.425368 681.606810 623.358339 565.670553 508.577070 452.148113 396.483103 341.702398 287.937902 235.321463 183.968387 133.951671 85.271378 37.927820 -6.835255 -44.639930 -71.006604 -86.627300 -93.315294 2550.088575 2627.014261 2829.411176 3248.575479 3496.124993 2618.253368 1482.774536 1037.594882 1040.291881 1240.632838 1593.252221 1887.506329 2067.822180 2193.509815 2275.304279 2319.762331 2332.058389 2317.073647 2279.616700 2224.345428 2155.613590 2077.331939 1992.874998 1905.038530 1816.041266 1727.560281 1640.788732 1556.505915 1475.151511 1396.898080 1321.717835 1249.441449 1179.807926 1112.505524 1047.204281 983.581037 921.337942 860.215443 800.000643 740.531810 681.699704 623.446288 565.761306 508.677139 452.262274 396.613509 341.846656 288.084550 235.438888 183.976638 133.645687 84.083192 34.027012 -20.923214 -67.020755 -92.384376 -106.003183 -111.697070 2614.133121 2663.539755 2746.523877 2880.483982 3043.661778 3007.458738 3284.951091 5555.822318 2878.678384 5288.213262 5585.651680 3223.545001 1928.530391 11729.268410 3269.514077 1527.282837 8607.327910 5038.175008 3395.637530 3950.555218 4577.174639 2070.084720 3066.348678 4285.020500 3956.174546 10663.411904 4635.004723 2799.133756 4394.679919 8355.898364 4196.581554 13159.276906 4970.114159 3695.100265 23832.675253 22024.252035 5574.619937 1082.885695 4478.502819 6466.086638 16975.253564 18905.965354 21679.649162 364.840048 -107.433802 -122.309646 -131.276845 -135.270453 2687.259749 2725.462138 2752.630716 2681.880646 3239.227857 5539.336078 4363.228473 9514.384458 3198.592405 2063.198400 13549.572123 2978.646642 5509.135524 5503.260910 5870.194772 9300.585671 6806.559820 3775.968779 2781.479262 3792.117184 3610.585816 4160.752445 4295.319749 4155.071819 4538.593091 2918.858762 3510.927138 4007.072906 3414.974663 5016.569173 3582.030163 4602.493047 4829.619007 4396.935996 3097.983010 4391.714834 3202.644778 3249.338663 954.074446 7382.468029 5159.973118 2732.727117 5251.176227 4504.967884 -151.197405 -155.393248 -159.833057 -162.068633 2780.298698 2851.799844 2998.639813 3100.872280 3781.150242 6345.632169 10307.940925 18909.755991 3571.747472 1042.328767 38265.268559 5891.780407 2403.464021 5292.302956 16244.562288 10882.400658 10971.313253 17698.119627 4503.655251 6117.409987 4209.421116 7359.442548 7862.915112 7093.994391 7056.516011 5939.367049 4599.588615 2510.330570 4274.841728 4849.528087 3964.217120 4317.345903 4952.364276 3262.573885 2975.591423 1626.914707 4115.232221 8484.309127 2494.742353 5185.513642 5007.588458 3748.659998 9520.731140 8473.143347 -185.881442 -187.210613 -189.032786 -190.057024 2865.019293 2982.340600 3292.724221 3807.089812 5330.110295 4691.583167 36924.298805 5238.736577 18115.705714 29682.048151 8659.863880 36991.971840 -3124.793163 5725.147460 20444.875782 23168.633645 8237.986715 3729.655996 8648.883102 4595.104076 2914.649020 975.715808 10178.524914 18478.608451 -3750.855523 10343.344879 19392.933621 2439.101314 5328.130584 6643.146025 2803.366146 5161.939890 5640.769999 5383.756379 17631.423908 3985.738387 4684.261891 16250.097898 3726.575855 7852.475888 4228.732601 8351.321467 5932.162924 46811.206662 -216.356165 -216.729168 -217.392138 -217.771511 2906.347748 3039.900482 3414.635355 4216.549924 26840.366739 812.464887 35115.072903 38107.751796 28995.888075 28458.490559 19625.017210 31311.008366 35152.164806 30165.576589 12541.087081 33442.317617 8385.956861 32417.406601 25886.533289 32266.778481 21975.563252 20340.325331 10417.450837 28286.109451 16212.331489 35558.814586 818.256545 32690.043398 13537.849449 10647.167391 14831.252091 12939.009755 3785.069831 6116.734245 3469.589792 9784.684324 4729.967768 6058.661527 14056.095175 9072.869431 8583.604136 2610.239877 -1046.513158 3399.331803 -244.139739 -244.158355 -244.332804 -244.414261 2902.970975 3019.534073 3319.886068 3919.461619 40049.460125 21687.942965 39972.010168 42152.243138 27054.064158 19440.438676 35552.558370 32991.396191 30070.747661 39663.695660 36694.733916 31893.447372 32639.943267 32495.297835 29834.327816 43168.076566 15679.004847 38757.665515 48775.685654 37875.889429 28177.036521 38423.693585 20137.124737 42625.084563 31761.452925 12075.649879 1547.721083 5693.112023 6264.223081 7253.571346 10226.125125 11588.152322 -4280.076053 1400.904739 742.946467 11625.232307 11918.544445 3486.055876 25466.978365 15230.048071 -269.825492 -269.708235 -269.681614 -269.635446 2883.572485 2990.182407 3281.808548 3903.400626 39457.215025 32079.693801 36195.685066 38895.050210 37149.918634 34632.754272 41155.925650 39022.756381 28894.046507 39727.206683 37036.661361 34612.695948 39345.142522 40311.251716 35657.941273 39089.726824 41324.181764 37505.330346 28441.181911 35770.565769 31601.316815 4634.012288 32921.781512 41011.071942 25289.259020 21856.617575 8366.650878 11596.818048 5690.697931 30920.059483 24449.640784 46535.495584 10718.606285 -16455.335913 1777.266041 3118.299310 -623.801612 8155.161061 -5951.854222 8374.078760 -293.690309 -293.523010 -293.416550 -293.319338 2867.669578 2978.387822 3309.814674 4074.302530 37572.492202 37909.133209 36179.097861 33981.438734 36807.989858 20604.213066 25050.165325 34896.988151 39295.304161 21919.578363 37563.853491 35224.265146 39664.586650 60628.856728 39693.129865 30525.474930 35450.669399 40628.809217 36515.280784 39703.952084 24262.559144 43248.968069 37043.282206 33024.609132 23025.215476 38300.424292 35078.299080 39734.339502 43133.923497 29401.425243 54033.497559 35318.163468 37538.221637 37652.481220 29011.861491 26996.484398 652.830679 35823.515124 7674.589756 -5478.062691 -315.891846 -315.709481 -315.574118 -315.459014 2852.470541 2966.677028 3310.749761 4096.843902 38020.785449 36904.434118 26478.248567 32918.538623 34232.114878 23854.103773 29821.939567 28442.218744 33816.268104 34798.736830 33991.993303 29247.381435 34091.022226 36708.059699 29090.533534 25492.752797 39531.712659 39799.560958 39305.900824 34949.306803 35046.271533 39912.863528 31886.373074 30404.048224 29477.336445 36383.571370 25985.202934 37979.595042 20879.689577 43699.889676 36261.174640 30357.358905 11777.814381 44536.768975 33372.688485 34352.518225 41403.236286 22426.999240 24154.091799 5351.737844 -336.540191 -336.357191 -336.214259 -336.095333 2826.647749 2932.948120 3277.060656 4065.983748 36726.379246 25387.491944 21917.260228 25625.054124 32815.462258 20374.978902 48435.518759 38294.008977 35200.049328 17411.914180 37629.659963 17158.758636 30882.864164 30376.623849 29724.532505 35314.046978 35340.669072 58899.017683 39190.995337 39078.749255 28336.700202 37929.846956 24852.250154 37543.774905 35713.629169 35522.745331 37852.138696 18882.180331 47481.071834 38311.569811 65139.729186 28093.806371 40978.477979 43941.562040 41156.709198 8645.970907 13413.595524 28078.475657 12752.466086 -12838.268756 -355.725315 -355.547573 -355.405922 -355.289031 2788.020306 2857.825089 3094.844569 3694.047353 26261.437859 33208.111522 47253.167552 20462.917279 29304.057374 18832.091452 10277.420997 20967.703533 24726.498763 33356.025326 16280.755778 24819.793239 27804.889095 16953.514293 34145.732784 34150.218372 29833.223482 18841.219811 28579.449786 36826.980568 31097.934572 36707.546841 29762.822728 33538.334834 33343.142273 29628.464041 38650.304496 24892.104795 33283.167140 40544.756612 33406.569104 27649.614251 30182.214299 32514.357839 31195.234419 16059.997730 32590.233583 13019.989182 15641.674466 -23821.974170 -373.527621 -373.357410 -373.220596 -373.108079 2760.037337 2782.193769 2862.237328 3094.735482 24043.819850 25497.240657 14593.465651 10407.248229 37734.641473 45152.057091 14353.103225 15142.515099 34146.534988 28217.200177 30133.335913 28213.212555 35037.502324 40272.324386 11545.050321 16169.477298 30965.830582 25709.903026 33949.007835 21752.364503 26902.261601 32633.496556 33977.983028 30455.907144 21969.032760 30719.066991 33567.032913 19011.075723 25723.161087 31174.026415 36928.669514 36424.543021 32799.610149 29417.419746 38402.331983 41364.944439 26950.629061 16100.387160 35648.272717 24623.923732 -390.021815 -389.859845 -389.729165 -389.621846 2776.135791 2780.093415 2789.869195 2933.284091 26619.250320 17396.779827 15777.562178 6054.060377 26646.909990 11412.205441 8569.078562 10979.142172 33105.480014 13148.138733 18161.621914 22896.762206 8891.467201 34359.637581 43279.723400 21074.629209 46083.057633 17846.180337 17039.387945 38087.409827 18069.659643 23154.693888 18095.304810 25996.844159 26936.858915 35387.861900 35079.208522 37410.861154 45296.390794 34878.040491 32575.276944 30718.312150 32455.812672 35323.090321 29973.722004 16543.449517 30310.484348 33159.274997 20278.715035 40621.438957 -405.278179 -405.124471 -405.000249 -404.898293 2846.110987 2871.234617 2928.136089 2896.893951 7937.979814 14700.596653 14654.268985 12058.042354 23145.180918 28288.887814 12578.840890 50794.535822 5311.937694 16254.018002 20971.261970 22083.701455 11491.325166 32815.426074 9514.305474 12131.506306 21776.131118 34357.831990 59474.704668 8678.119827 25267.063348 12968.780748 42187.912376 20199.141104 16895.895870 19625.483515 33041.144384 9387.999344 27070.674686 17249.824676 27530.415943 49187.500323 39745.303347 37536.330827 20105.620528 29928.105640 10284.799692 37896.691531 48002.336078 33814.492604 -419.362904 -419.217175 -419.099312 -419.002598 2945.189146 3018.153827 3216.904668 3465.155014 16281.676639 11899.981968 17366.474098 12474.467322 42395.353201 30103.074889 10537.946595 13267.083046 19647.373572 29357.588533 7959.768682 12111.105489 17571.628192 32430.321008 13110.199721 10524.401354 26782.248307 8623.138806 10644.206826 15940.192210 41201.553864 14046.882754 15211.336801 28095.119430 42384.737731 40398.754507 13050.685345 33030.913362 23162.158873 15349.783113 11107.879343 19090.406239 45572.009020 44222.064835 22293.545681 40270.307097 15342.406048 33424.307155 32233.808576 15693.378688 -432.338150 -432.199990 -432.088208 -431.996493 3035.281814 3138.616511 3489.972547 4329.576933 36737.845972 47111.233920 13197.924514 1896.342036 15645.261435 10980.964040 10686.056584 16514.152659 4668.359597 3345.267917 12277.597524 11017.826189 6909.869072 10944.653920 15428.948738 14523.735231 21975.749005 15817.487264 18474.771748 7762.584730 19960.425544 7103.133007 30839.400372 12232.506223 16462.718311 18805.090707 21441.540466 10770.964793 47078.406022 26004.194005 42942.438377 34579.466660 27874.158945 50466.646686 46923.467686 54346.869347 47876.785008 36365.617157 44631.641503 28538.658497 -444.262108 -444.131060 -444.025017 -443.938014 3104.479552 3171.726150 3262.529644 3212.401931 46076.763697 8384.848511 -11798.328440 22975.700201 8498.583926 12013.738852 28741.075805 39798.236326 24206.755713 3391.785762 28906.453169 10455.384637 40720.942014 10953.397879 946.216226 12931.069346 4759.282467 13556.270753 8125.204932 14553.775135 13007.089085 25402.156554 13788.756242 17494.978786 6207.690209 32000.033650 16133.929310 11580.541949 28007.429562 13425.071223 6520.256745 25525.817464 41002.360364 44329.362384 42173.324505 42169.505220 45324.864321 38688.709084 37919.586972 31830.731130 -455.189145 -455.064761 -454.964104 -454.881522 3182.809710 3262.738127 3480.932217 3760.833977 7878.712924 18700.925657 19418.409000 29867.184440 32577.100805 39592.424592 9277.501433 36138.473475 6833.341216 6632.377525 30297.574608 -1079.761874 13204.242213 37349.519793 14022.647425 -15718.243516 45342.801258 2193.448393 25203.908917 7723.269093 5486.732712 12650.398914 16852.533716 13447.381440 41911.566098 11857.427667 51673.024351 12127.956267 20501.317480 -21913.652720 26309.395590 41155.133685 16807.833341 15483.524769 30133.006340 43932.405271 46621.638163 50335.870444 47317.936636 36288.232856 -465.170086 -465.051950 -464.956351 -464.877921 3268.485987 3338.931608 3578.442999 4145.882545 33801.367435 40046.763612 38914.975854 11851.176451 28006.766083 3434.194116 9371.031876 28961.017775 7823.068425 -2536.282948 3169.516253 14784.280720 -5435.839219 6193.864564 11162.213147 7842.790006 4720.190467 25698.834755 11257.500747 7138.267914 -11539.703775 15335.984352 4936.365949 12362.235265 6047.342049 11721.024458 22637.917241 51148.933601 7630.525129 3927.154479 5283.034698 14612.743294 37663.591805 21619.733093 41536.293568 37539.656957 36375.234579 38019.858006 40378.943585 51805.907179 -474.252612 -474.140365 -474.049536 -473.975024 3367.311731 3389.614682 3409.086518 3486.835098 16996.104397 12007.836219 5153.576507 38051.430765 5780.087313 26538.059256 3962.901346 2321.551797 4523.204634 23620.784359 7413.769103 29283.905960 2495.766870 -10259.770457 10550.035813 44299.723355 29705.699001 15867.658586 41187.684654 7638.418836 -9384.947238 6523.383313 11937.847087 -11047.219817 38209.544044 12228.065335 16408.328112 26984.762964 37129.457805 40991.589238 -6047.493004 27161.264712 15085.018626 -996.800567 -15621.920086 40870.314902 55615.929056 43931.835648 41759.182025 50361.951138 -482.481766 -482.375121 -482.288832 -482.218051 3503.533475 3522.596153 3540.884331 3557.578667 -489.900567 -489.799320 -489.717409 -489.650227 3663.397655 3708.035711 3839.541903 4002.521724 -496.550695 -496.454736 -496.377116 -496.313463 3805.870728 3860.901287 4044.252137 4464.039192 -502.473244 -502.382564 -502.309229 -502.249101 3905.139323 3943.002048 4070.718938 4408.981617 -507.709524 -507.624219 -507.555249 -507.498713 3964.521789 3984.260620 4007.739103 4019.289262 -512.301892 -512.222169 -512.157731 -512.104926 3989.435062 4041.357045 4167.736871 4290.194093 -516.294603 -516.220777 -516.161127 -516.112263 3949.783002 4060.003067 4363.858960 4694.326055 -519.734652 -519.667146 -519.612626 -519.567986 3807.315216 3947.558573 4423.713712 5362.132735 -522.672600 -522.611941 -522.562978 -522.522911 3578.635934 3658.558089 3937.697477 4712.142524 -525.163362 -525.110174 -525.067273 -525.032193 3371.842790 3369.575085 3348.490274 3513.914820 -527.266936 -527.221931 -527.185668 -527.156048 3310.221458 3293.655982 3131.763163 2754.471864 -529.049054 -529.013022 -528.984034 -528.960398 3432.811327 3519.678576 3623.110807 3466.991708 -530.581742 -530.555536 -530.534511 -530.517423 3658.550709 3881.921169 4393.192566 5177.973026 -531.943758 -531.928276 -531.915942 -531.905995 3877.322972 4184.786952 4757.090269 5471.890911 -533.220903 -533.217075 -533.214179 -533.211988 4037.600479 4439.570639 5172.719241 5688.999256 -534.506185 -534.514946 -534.522243 -534.528424 4115.725226 4638.181096 5591.609482 6148.972343 -535.899804 -535.922076 -535.940309 -535.955470 4090.822705 4742.328259 6263.643086 8368.104910 -537.508982 -537.545649 -537.575531 -537.600254 3964.089325 4626.340508 6168.940737 8996.208024 -539.447592 -539.499477 -539.541669 -539.576495 3820.599036 4456.923471 5815.607251 8126.257006 -541.835604 -541.903442 -541.958538 -542.003949 3745.462387 4402.982935 5945.649818 8675.749519 -544.798342 -544.882761 -544.951263 -545.007670 3753.316907 4386.163099 5749.431569 7859.599918 -548.465558 -548.567052 -548.649357 -548.717082 3842.034493 4465.025032 5915.820217 8245.839531 -552.970337 -553.089247 -553.185627 -553.264892 3957.300668 4521.451888 5902.663757 8355.122972 -558.447846 -558.584344 -558.694934 -558.785847 4036.787553 4458.728075 5527.757868 7424.639841 -565.033966 -565.188040 -565.312829 -565.415377 4057.980513 4263.525081 4780.916819 5955.804157 -572.863834 -573.035281 -573.174104 -573.288149 4054.856066 4066.808817 3968.867841 3540.518278 -582.070342 -582.258767 -582.411302 -582.536580 4050.199247 4008.699518 3990.109508 3753.301606 -592.782644 -592.987465 -593.153242 -593.289367 4001.931067 3901.144123 3860.886808 3946.950065 -605.124736 -605.345201 -605.523613 -605.670085 3917.156777 3706.932396 3293.523790 2759.398312 -619.214185 -619.449394 -619.639714 -619.795940 3883.848400 3623.560131 3037.030202 2288.455338 -635.161063 -635.410002 -635.611415 -635.776729 3980.291616 3778.897297 3271.730457 2141.556809 -653.067193 -653.328781 -653.540418 -653.714111 4225.604245 4170.448921 4189.772705 4422.723437 -673.025771 -673.298916 -673.519902 -673.701260 4617.902384 4661.631832 4708.658515 4925.526732 -695.121466 -695.405132 -695.634637 -695.822987 5199.389030 5408.992941 5749.548887 5768.519308 -719.431057 -719.724338 -719.961642 -720.156400 5954.040577 6385.961735 7376.730092 8599.208627 -746.024693 -746.326900 -746.571457 -746.772185 6802.299575 7387.978664 8768.270904 10763.094590 -774.967820 -775.278571 -775.530085 -775.736553 7689.381974 8305.990234 9847.063761 12699.305356 -806.323823 -806.643135 -806.901635 -807.113877 8643.396760 9155.317855 10319.949965 12286.507648 -840.157374 -840.485755 -840.751668 -840.970046 9749.629849 10175.044236 11162.745231 13105.704998 -876.538473 -876.877009 -877.151227 -877.376487 11039.195069 11416.698618 12295.134016 14335.052321 -915.547113 -915.897543 -916.181485 -916.414801 12495.056135 12891.880558 13816.424124 15638.688860 -957.278451 -957.643217 -957.938870 -958.181883 14068.169677 14514.263373 15774.770219 18447.572135 -1001.848303 -1002.230582 -1002.540520 -1002.795350 15745.073967 16122.999378 16928.358497 18241.118330 -1049.398725 -1049.802412 -1050.129783 -1050.399016 17621.462184 18019.796876 18981.782228 20657.867593 -1100.103325 -1100.532966 -1100.881430 -1101.168070 19753.734586 20229.845963 21529.840547 24260.142045 -1154.171885 -1154.632536 -1155.006139 -1155.313504 22111.434712 22659.405087 24037.851417 26648.115408 -1211.853724 -1212.350708 -1212.753660 -1213.085205 24582.419923 25167.995301 26792.789311 29918.699249 -1273.439149 -1273.977667 -1274.413973 -1274.773003 27020.134508 27475.413193 28661.837898 31107.561134 -1339.258237 -1339.842762 -1340.315597 -1340.704793 29405.325054 29641.437798 30301.973783 32185.783635 -1409.676204 -1410.309480 -1410.820069 -1411.240673 31886.656403 31898.136544 31858.499656 31594.142661 -1485.084747 -1485.766040 -1486.311496 -1486.761785 34658.855751 34652.764116 35043.732765 36270.264061 -1565.889363 -1566.611064 -1567.179860 -1567.652042 37689.639986 37600.363099 37924.027436 40463.944697 -1652.493960 -1653.234416 -1653.796340 -1654.269828 40835.532964 40459.422673 39681.749132 38908.677480 -1745.287488 -1745.994711 -1746.477740 -1746.904047 43998.053323 43447.353432 42100.834820 40019.274573 -1844.645297 -1845.197868 -1845.433818 -1845.702522 46973.288460 46442.623412 45981.645168 46445.953643 -1950.978577 -1951.086029 -1950.681904 -1950.546830 49458.096880 48549.008787 46328.981091 42706.427952 -2064.924383 -2063.848681 -2061.884820 -2060.822346 51576.470160 50676.883015 48873.048879 45914.781560 -2187.957746 -2183.632545 -2177.970724 -2175.013742 53321.724450 52761.922012 51929.013358 50996.696625 -2323.853971 -2309.826414 -2296.193823 -2290.165093 54288.612197 53967.207923 54100.824207 54339.437596 -2474.410984 -2434.715203 -2408.414499 -2402.448025 54112.769849 53420.182218 53174.547235 55441.840722 -2535.541604 -2518.893604 -2510.821536 -2511.251347 52994.607979 51342.283577 48144.239546 45791.264963 -2542.443392 -2584.029015 -2615.060316 -2621.915604 51583.217266 49299.036068 43919.306506 34682.605454 -2688.628983 -2714.054394 -2732.091916 -2737.850615 50285.880703 48181.585218 43776.769472 37999.349692 -2842.290455 -2847.258332 -2853.422504 -2856.479712 49089.452629 47295.774409 43801.627465 39574.823804 -2968.214339 -2969.103703 -2970.948107 -2971.816996 47978.092201 46412.169134 42868.776354 35521.165656 -3079.422539 -3078.468616 -3078.209448 -3077.768149 46916.764447 45692.236802 43912.847294 41598.345929 -3173.663784 -3171.660909 -3170.259694 -3169.024146 45770.727489 44374.438807 42087.472168 41881.680352 -3247.598012 -3244.871742 -3242.759641 -3240.996266 44680.019061 42900.332304 38821.788727 33164.713795 -3297.754222 -3294.491021 -3291.894596 -3289.758027 43844.380133 42080.339874 38320.328498 33526.293836 -3321.103900 -3317.458589 -3314.535772 -3312.142794 43249.501993 41593.311032 38093.279077 34743.071970 -3315.418465 -3311.547521 -3308.439194 -3305.898912 42920.394039 41477.252330 37883.953960 32587.774291 -3279.479835 -3275.546174 -3272.392410 -3269.815000 42815.117269 41909.892570 39916.972833 36802.249194 -3213.155907 -3209.325192 -3206.270556 -3203.769071 42628.103788 42067.031565 40967.934741 40020.157110 -3117.350498 -3113.791865 -3110.996138 -3108.692076 42127.208616 41561.025822 39897.165432 37262.988201 -2993.842918 -2990.748309 -2988.421571 -2986.466529 41329.719678 40812.723693 39154.570011 36249.767899 -2845.027012 -2842.675202 -2841.172327 -2839.807105 40317.213202 39976.610781 39016.102486 37152.458128 -2673.525569 -2672.455497 -2672.508395 -2672.201218 39142.853515 38914.338644 38217.647271 36969.947211 -2481.552972 -2483.036949 -2486.304367 -2488.037236 37896.504561 37692.016332 37087.585591 36031.720355 -2269.578362 -2277.073046 -2287.379491 -2293.113383 36738.393763 36537.161837 35650.303858 33427.504740 -2032.628659 -2057.174746 -2082.781611 -2095.660030 35815.418610 35822.658809 35827.446251 35677.417198 -1746.278561 -1833.115243 -1884.459292 -1907.351643 35090.225152 35224.683476 35564.499435 36308.886508 36319.988232 35067.327080 34751.961521 31879.277929 33677.117745 33684.741799 30605.437672 29964.515674 29739.632733 27697.281411 24288.767806 22203.763240 20386.178795 17173.932138 13986.649536 10639.188876 8328.500468 7019.263945 6608.287405 6254.956527 6100.628524 5836.841442 5583.113245 5334.215270 5083.859061 4827.793955 4564.273000 4293.576954 4017.344145 3737.941523 3457.956676 3179.828480 2905.607297 2636.824416 2374.446857 2118.894244 1870.097125 1627.579837 1390.554837 1158.018901 928.844374 701.860116 475.916384 249.923435 22.840570 -206.442597 -439.487807 -679.415924 -934.393031 -1231.225902 -1490.311634 -1633.730964 -1710.281425 -1742.447972 34522.290181 34667.134859 34923.634398 35257.956447 35296.470706 34868.220306 34536.418476 33009.690265 33213.181204 32625.265915 30578.157026 29221.574469 27763.568463 25308.920825 22764.447825 20556.507895 18382.221994 15776.476872 13200.894194 10801.514730 9102.147203 7889.501730 7076.237399 6542.810082 6168.032816 5865.948802 5595.543211 5338.793264 5084.662716 4826.918373 4562.850776 4292.222587 4016.369534 3737.472185 3458.001515 3180.325652 2906.456112 2637.907931 2375.647622 2120.104771 1871.226328 1628.556493 1391.329063 1158.562695 929.152521 701.953662 475.853137 249.825717 22.965248 -205.526098 -436.417986 -670.575504 -908.483753 -1142.812562 -1346.741941 -1490.848005 -1576.733884 -1613.884381 34140.812111 34264.153157 34447.160088 34613.895683 34621.847112 34340.693981 33819.163156 33065.704044 32286.869561 31167.019382 29690.351484 28022.922565 26154.571284 24049.724896 21809.033942 19533.048839 17264.786869 15014.494817 12862.693823 10934.448120 9350.217009 8147.438039 7284.620763 6678.349468 6240.790565 5900.704051 5611.407123 5345.316450 5086.626651 4826.776730 4561.899642 4291.152279 4015.533323 3737.025228 3457.978943 3180.690584 2907.131395 2638.797930 2376.653231 2121.133454 1872.198431 1629.408882 1392.017054 1159.061393 929.459186 702.094082 475.898360 249.933656 23.480883 -203.833196 -431.799182 -659.067509 -881.687869 -1090.367886 -1269.572674 -1404.974248 -1491.066343 -1529.616971 33980.340970 34095.146735 34239.016759 34347.142103 34315.766115 34061.745376 33565.297351 32851.844755 31927.512304 30732.722369 29258.861509 27554.583990 25649.678833 23570.128054 21377.811718 19148.473219 16936.165525 14784.886854 12762.569994 10958.058450 9449.935688 8268.614370 7389.781992 6752.697892 6285.579854 5924.707788 5623.115800 5350.314594 5088.114382 4826.552364 4560.983313 4290.121938 4014.702323 3736.541006 3457.882692 3180.956586 2907.694578 2639.573676 2377.551500 2122.068520 1873.095201 1630.206639 1392.671459 1159.545638 929.765506 702.237710 475.928162 249.958697 23.733214 -202.858067 -429.056568 -652.509211 -868.097763 -1066.884465 -1237.023421 -1367.682446 -1452.546730 -1491.132829
</DataArray>
<DataArray type="Float64" Name="Velocity" NumberOfComponents="3" format="ascii">