<VTKFile type="PolyData">
<PolyData>
<Piece NumberOfPoints="2064" NumberOfVerts="2064" NumberOfLines="0" NumberOfStrips="0" NumberOfPolys="0">
<PointData>
<DataArray type="Float64" Name="Pressure" format="ascii">
 24904.188879 24893.101762 24908.301206 24996.314469 25241.148071 25669.407274 26148.163941 26440.092837 26352.784109 25821.011389 24896.702800 23776.996518 22729.179887 21845.637947 20985.891047 19972.999723 18833.338949 17667.671845 16395.117254 14924.716833 13303.741039 11634.033082 10036.087258 8610.782298 7402.446312 6407.433039 5599.229287 4945.204488 4414.254622 3979.578720 3619.237773 3315.795884 3055.656597 2828.366956 2625.995296 2442.610715 2273.859120 2116.619791 1968.725542 1828.732651 1695.730626 1569.185283 1448.810982 1334.469216 1226.091316 1123.623183 1026.990174 936.081087 850.752731 770.862426 696.347558 627.387212 564.668033 509.630424 464.287465 430.404730 408.827442 399.228495 24695.442796 24631.713610 24538.735841 24495.627806 24679.168044 25200.188205 25825.700875 26129.573295 25858.612221 25046.492525 23763.024100 22291.904305 21172.426914 20483.686409 19852.958370 18849.155426 17654.709562 16766.880133 15914.589202 14735.388313 13316.102084 11730.164506 10128.108411 8681.409346 7457.236700 6450.901955 5633.716719 4972.335005 4435.387350 3995.892888 3631.738385 3325.318143 3062.880941 2833.840514 2630.154369 2445.801010 2276.352503 2118.627588 1970.409021 1830.211462 1697.089880 1570.481749 1450.078655 1335.724302 1227.336473 1124.850619 1028.182698 937.209191 851.763398 771.650791 696.696750 626.871515 562.622377 505.495312 458.331022 423.609286 401.913144 392.375130 24340.593229 24200.877699 23926.156078 23607.076426 23614.839348 24485.640045 25631.000469 25977.837884 25129.953417 23769.364585 21779.364624 19368.236869 18256.461143 18212.680283 18243.809065 16945.586267 14916.703744 14574.557634 14914.457775 14225.469511 13331.142075 11945.137555 10263.022739 8754.196789 7509.312551 6491.011882 5665.184751 4997.011049 4454.613253 4010.758460 3643.151126 3334.028242 3069.500082 2838.861609 2633.971239 2448.726166 2278.632065 2120.453277 1971.927671 1831.532667 1698.292356 1571.618833 1451.183165 1336.812791 1228.412675 1125.907510 1029.201883 938.154568 852.561947 772.143502 696.520316 625.189717 557.641731 495.066471 442.933074 406.869947 385.616242 376.545170 23917.856917 23739.637197 23326.901598 22618.837714 22061.646883 23481.751940 26184.972143 26833.570580 24065.788637 22002.822927 19284.741393 14050.584300 14585.335286 16621.406483 17612.718638 15583.323305 10096.012428 10927.160354 13584.846565 12508.600911 13492.111289 12387.803658 10282.161353 8800.364931 7551.203604 6526.351720 5694.188659 5020.345069 4473.078591 4025.177660 3654.293473 3342.569758 3076.010907 2843.810070 2637.735652 2451.608683 2280.871667 2122.236825 1973.398929 1832.799646 1699.433427 1572.687979 1452.214612 1337.825088 1229.412106 1126.890460 1030.155265 939.052175 853.351425 772.709766 696.582795 623.980802 552.683054 476.211493 412.906698 378.288809 359.768345 352.041123 23484.820476 23384.336303 23139.945646 22483.094768 23254.121510 21798.628662 25914.383175 13081.296105 16208.603241 14551.328543 11782.286120 16758.438153 1886.505666 11984.124168 12522.222032 17201.808814 20701.786709 12460.393842 13917.846274 12935.637598 26679.774477 11650.100749 5733.026225 24062.270667 12006.034092 29952.067955 12721.152912 15822.200355 15951.220306 17384.897395 17511.090467 -474.775418 15786.968513 14113.625120 12439.423448 28270.023165 3899.762910 32155.214780 17047.517033 14653.266415 29090.174794 28868.507248 26852.684382 18110.731996 358.275757 338.034108 325.848481 320.422335 22981.406603 23060.920963 23411.254148 24055.375912 12736.022388 -23972.839806 12435.853657 11220.186895 14876.132786 11322.643277 11717.099613 10688.067244 1977.590355 13325.223758 11536.944214 13950.325499 13059.287302 10071.044385 14632.838063 4529.519030 13453.015639 14019.859340 12841.991331 8232.973661 13661.266261 11756.167472 15262.982208 12793.237665 12472.671876 11690.167607 12172.003462 12116.303700 16407.612785 11723.714275 14669.776244 16711.933415 18243.387679 12364.155120 19822.680496 12347.629597 11664.482232 13184.559409 14051.186927 15508.270259 299.023518 293.300784 287.257334 284.205238 22259.937853 22431.459333 23079.412316 24292.239457 10696.708794 10815.849015 10099.533848 11422.496769 12485.009535 11666.587133 4729.774726 10588.116843 10305.151543 12573.033418 8484.848384 6748.638002 9991.391130 10816.114061 10634.328804 990.284558 10698.410391 14939.775662 8462.365012 5937.463332 10107.599909 6691.784414 13718.111646 10869.673384 12327.502815 11718.995676 14570.847616 -2073.995871 10305.816969 12364.884298 15261.056212 15894.944937 8250.182063 12482.737719 2514.642829 23827.135566 20996.807012 16692.729539 25866.551178 14445.654423 251.779393 249.924572 247.415286 245.991711 21253.371792 21371.390720 21852.207944 22911.543836 9089.767499 14593.135003 10766.369774 11711.602371 10490.754771 9613.127275 7466.590651 7215.671526 8461.829151 9716.900152 9857.308589 10168.451893 9011.545115 3878.838605 8500.602263 9490.120757 9126.156704 8764.346629 11695.686840 5933.220120 7090.377287 10099.297627 12502.496698 5643.947326 2615.516540 9497.658549 11570.756912 19424.472235 10482.027073 15256.199141 7157.117193 12487.276854 11150.566518 4605.631899 7097.099951 25076.718983 19653.950890 46424.796616 16253.396914 13464.850923 209.718578 209.138213 208.182309 207.619158 20039.426184 20019.203044 20104.891893 20659.358183 10164.829208 9948.715403 4531.714903 5179.844135 13414.520317 23984.311148 7928.538111 10952.039161 7208.424299 12266.305330 7792.407865 29738.996630 9643.164369 5285.796397 10136.617548 23636.332405 9485.080691 9592.013866 8551.252862 7518.864128 10748.465579 12552.572953 11071.762336 9523.519966 10493.712875 10201.915006 16618.204019 9194.496994 5935.009816 9567.064450 13417.523449 6500.195985 3377.875915 12669.130764 8503.365939 12449.367006 10934.418679 5933.973727 12125.656867 16470.505157 170.639675 170.522408 170.213755 170.043135 18789.037294 18626.207212 18292.199724 18033.265795 6811.545825 10297.881122 6451.509087 7334.027703 6794.488613 2105.940817 11040.350151 5990.992186 11634.568533 6366.147648 9074.266687 5331.385323 9989.710120 6777.383050 28346.340039 3827.228114 2115.196128 7070.785438 13053.048695 5810.307817 7463.084435 11450.966453 10045.471604 3266.234316 11962.875899 11682.931568 9338.210798 11666.286852 10265.237204 10090.554218 11841.942212 8306.211198 7466.927149 12769.680933 5156.131102 9990.621648 12155.240406 2923.814238 10145.745650 26656.922701 133.637125 133.691732 133.644849 133.638948 17675.592197 17438.100037 16841.173592 15665.221328 6800.216912 7627.083840 6387.825913 6669.980798 10135.091225 9767.387989 7726.958514 4717.456508 4884.073330 6695.499163 4175.310369 5057.917798 4515.662186 10073.613718 6947.464462 5065.225195 4980.719382 9047.051597 6147.780652 4259.377174 3697.008756 -5724.227649 6829.165544 9120.358728 10123.734157 9939.255427 6537.916968 5683.886881 12360.348691 6160.729898 9060.887202 11691.352366 8948.195470 10351.612419 10600.950798 11440.862541 5942.617111 20945.035603 10680.562482 -1766.359263 98.265329 98.379656 98.433882 98.491624 16799.561262 16599.015650 15945.803249 14025.239161 6578.899961 6576.741466 6967.623398 5946.286609 6026.174342 6295.528199 6992.615392 5675.071326 6025.110459 6461.358542 3404.024525 1231.090969 2850.014172 10152.491974 140.464723 7366.477453 5434.533689 3835.565621 6326.425964 5753.364626 8688.121864 3372.275997 7685.059741 5180.237379 6982.248016 9432.834035 -142.078490 9767.468953 8173.528540 13220.700522 10767.575539 13474.555170 9739.253509 12857.664513 17705.449514 -4624.377929 11885.117253 11883.628936 3791.955541 5146.874956 64.265061 64.395006 64.484186 64.562849 16157.699206 16054.326094 15735.078436 14683.900780 6562.784226 5927.102447 8631.024744 6560.653600 6349.877295 6327.941881 4604.664066 6570.044632 5749.698305 4368.711086 6231.968862 5992.223554 7731.074425 7521.312160 5829.798487 11752.439614 5644.557819 3322.778222 6468.567791 9084.079638 5961.688220 3753.646547 10765.495638 5084.379996 9112.045238 5841.972913 22151.955950 2617.184392 6545.641737 13258.693149 9144.745261 6171.584328 -9391.138807 10415.024654 7288.244691 8372.889145 12290.541526 11889.490649 11236.846468 21233.366871 31.461613 31.590153 31.687559 31.769786 15701.129300 15643.364068 15421.072188 14580.496680 5890.374567 5040.967988 9343.940797 2443.791616 5240.516143 6288.020734 9668.774489 6913.983729 4631.330168 7221.177668 8227.476014 4938.016017 6671.876640 3928.400986 6770.994396 6828.376753 5575.413563 6444.866967 6084.180678 6193.913591 3554.009030 4471.625212 8325.698085 7913.860093 4689.074273 9783.993905 6896.047746 8931.297066 11083.923999 4257.003662 7677.999144 8709.491810 6662.583381 11708.869043 9714.792699 11235.308914 34069.849485 23131.363551 17028.010757 -24356.831730 -0.276541 -0.155483 -0.060222 0.018924 15398.354266 15452.825122 15585.474166 15460.708113 10702.127067 6160.276328 5936.016472 8472.337220 8868.256256 10752.061712 4346.279483 10158.493730 4901.023280 9863.796107 10276.028483 7408.209737 8058.340182 6048.932297 6549.245680 5698.915276 6832.647501 5742.999387 6128.167898 4641.980338 6720.686617 5991.058256 6321.781803 7318.686571 4621.764842 7826.534276 6521.807368 5982.263858 5176.647631 6158.049358 6226.208969 4844.140039 7317.952286 3847.991405 9133.723993 9753.868889 10519.287298 18851.664922 11972.203101 13153.226403 -31.055699 -30.943805 -30.854335 -30.780496 15148.417813 15303.695842 15795.511053 16814.812979 9165.625396 5391.379319 8651.142779 6849.362127 5934.590610 9259.124296 6708.837927 7540.230936 4622.441085 9555.790220 4495.257942 6055.146687 5928.921472 10635.780478 8379.024615 9610.538177 3651.970646 8052.913265 10330.237701 5018.657818 6333.877766 5035.706329 5350.548241 7404.508747 6005.489472 5793.235924 6175.748902 10731.406866 6160.908763 4338.673858 6880.813079 6840.311356 2664.715865 2173.629006 5388.491284 7272.673076 2322.290838 6392.120874 5593.938951 7918.067995 -60.965397 -60.862650 -60.779913 -60.711835 14850.629599 14987.049405 15293.665196 15941.820228 7854.489963 10311.058933 9826.636913 6893.825055 1845.619920 6356.194575 2770.859971 6800.630044 9536.173459 6227.854769 5831.478436 6879.624170 11187.556341 11145.499260 5770.303432 5644.913488 11607.160909 6132.895254 9335.091970 10795.432921 6486.858226 11003.596354 6497.964561 7272.540902 8590.308161 6147.043117 6031.679029 5223.852252 10154.518230 4683.326401 5604.389139 7207.436129 9536.424541 6893.493745 9237.696291 9122.112748 8703.775040 5475.196783 8531.143642 9682.940033 -90.082902 -89.988693 -89.912595 -89.850067 14507.906086 14613.603170 14688.733059 14505.741073 5802.989271 7334.836953 4112.567290 5696.109631 9743.789546 5521.623025 5973.774203 6843.379441 8646.041232 2625.044476 4877.068989 9685.622718 9153.862071 8220.142633 3998.426137 8260.281506 6432.347740 3482.756434 7803.818652 4248.511931 5759.055643 5772.592459 9685.191326 9093.673639 7435.603457 8357.184309 5717.656001 7157.251163 5222.587437 1956.667959 6915.948792 6431.084016 6168.393530 9062.552882 5071.368414 4738.189906 5088.867522 3997.788173 3423.809385 5415.103140 -118.475964 -118.389543 -118.319642 -118.262247 14158.079443 14339.228160 14689.740497 14950.134174 7850.995461 11667.154854 8338.874335 7782.213968 2641.647494 15235.121365 10684.961779 4679.756989 -222.861507 2362.206992 11867.225591 9188.451453 10076.982379 5009.662802 5939.849900 7992.153617 4400.174492 6489.682092 4549.111482 5497.723073 11119.754261 10936.130183 7170.578896 13077.118556 11171.879454 7385.343436 8640.646698 6503.126645 4986.999651 5185.093785 9129.715448 6551.618899 3629.342483 5880.478040 6123.781423 5151.188887 9389.331436 9728.479419 6272.755503 9466.398150 -146.204750 -146.125400 -146.061185 -146.008480 13779.908501 14061.687075 14802.563356 16447.337369 6468.445032 10366.270023 6766.478224 11101.207143 5664.972832 4446.106476 5557.651630 7184.818870 8559.689158 8510.671351 9394.721697 10773.789294 6022.787651 5988.772004 4288.625921 5955.366588 10823.920841 5262.502371 3859.330200 2604.673840 890.167586 8228.048688 5460.862839 5070.198181 7540.517722 12227.569928 5609.485404 12461.191089 10525.910720 1545.070939 9828.216953 6545.926602 11243.214197 10580.444100 10813.951574 9025.517561 10447.300003 1857.256851 5694.856865 6939.908752 -173.323345 -173.250445 -173.191442 -173.143027 13341.596345 13647.668029 14302.065458 15479.179622 7754.706476 7487.290394 6226.983092 6821.567101 8920.707473 9497.238311 1925.732076 25213.047557 8145.284692 4940.268688 15731.253798 4079.541051 6697.363205 7025.283907 9214.633289 4377.621045 6790.043700 28389.561961 8426.455967 4679.638111 6312.546121 11180.037604 6815.074215 4061.352453 -160.293313 4266.549255 3021.340940 7416.158200 9709.958416 4044.768078 15914.841650 8474.545129 12209.188407 5229.585089 4513.021607 11200.608596 1689.540646 10911.346470 6001.408237 4166.331705 -199.880983 -199.814022 -199.759830 -199.715370 12862.287486 13177.277655 13920.737774 14938.126536 9815.530033 8994.254035 5759.710500 13265.814544 3037.148382 4607.167629 9063.564331 13873.413005 10463.295393 4949.797483 12082.995726 9339.122027 6268.078944 10290.057848 13324.280956 13437.625903 11169.142924 1868.560543 10897.953093 5591.292290 5033.511656 7218.636358 8268.547045 9772.252284 871.142159 9815.105086 4603.033073 11291.547542 8058.992881 12613.340928 7965.137795 12787.412878 7192.170191 22988.959989 6719.825405 6440.514988 5801.033918 5205.500577 5492.182419 3253.127728 -225.923076 -225.861653 -225.811947 -225.771176 12371.842961 12644.447223 13217.406977 14069.995166 13428.555537 9071.739134 21809.073094 7241.490065 10069.961563 13354.809479 4818.929597 10124.683798 6317.265638 -1888.577555 11942.227919 13525.435689 12202.018714 6562.120199 7476.615178 2585.364837 4114.739551 10771.643594 5738.526605 5766.479155 6641.174660 3497.670707 3458.325856 18881.617964 8004.432668 3616.998567 13762.638250 11547.607900 8474.381414 6179.549154 6627.546313 7950.239857 3947.932400 11076.756580 4688.740888 12504.412586 10423.091611 9492.895498 7641.277834 2226.572519 -251.492093 -251.435897 -251.390429 -251.353141 11917.679887 12152.004998 12646.022407 13164.577542 5942.858066 7690.482273 9995.970588 7765.717455 8721.571187 12013.533294 12429.463967 13890.958303 12550.435224 31995.619910 11227.027987 13256.937874 21470.569872 4411.674942 5242.051589 23318.586516 18024.581648 11070.087498 13587.418725 8257.124094 13165.564731 5746.040359 3465.653105 5467.458004 1225.952250 7279.930879 11161.691901 8853.063772 8476.717428 8481.444117 14713.328354 9627.975860 19881.256604 8158.616918 13538.129939 8369.861042 8737.582328 6652.834928 10287.721424 8427.774218 -276.628280 -276.577084 -276.535669 -276.501712 11528.544564 11727.949990 12125.691797 12560.454090 -301.370270 -301.323913 -301.286420 -301.255684 11210.583633 11392.448290 11834.159470 12607.005821 -325.755561 -325.713937 -325.680277 -325.652691 10962.222713 11083.147671 11295.352122 11568.687448 -349.820908 -349.783949 -349.754069 -349.729586 10823.757847 10921.663156 11060.079468 11350.072770 -373.602597 -373.570266 -373.544135 -373.522729 10820.816540 10936.002124 11168.609076 11433.212729 -397.136652 -397.108932 -397.086533 -397.068192 10947.262796 11068.783180 11264.110140 11293.453195 -420.458953 -420.435836 -420.417163 -420.401879 11196.873813 11363.770029 11732.722447 12438.715601 -443.605288 -443.586768 -443.571814 -443.559582 11532.234283 11721.476529 12112.174723 12576.355572 -466.611347 -466.597411 -466.586166 -466.576976 11918.846282 12128.557401 12469.643068 12531.506459 -489.512655 -489.503281 -489.495724 -489.489560 12313.030803 12604.095830 13329.953112 14251.915367 -512.344471 -512.339617 -512.335714 -512.332547 12618.495547 12900.132843 13443.929901 13779.456188 -535.141639 -535.141241 -535.140942 -535.140730 12797.794189 13093.123410 13719.250026 14388.131472 -557.938410 -557.942382 -557.945615 -557.948298 12825.097614 13127.042781 13942.392217 15372.906219 -580.768245 -580.776471 -580.783143 -580.788644 12691.609115 12870.213832 13319.332274 14224.391773 -603.663594 -603.675930 -603.685923 -603.694145 12486.406328 12496.824256 12465.108948 12203.110556 -626.655665 -626.671936 -626.685107 -626.695934 12320.156549 12216.819123 11915.505274 11318.605489 -649.774188 -649.794188 -649.810370 -649.823664 12234.703680 12088.858519 11731.527556 11299.667297 -673.047176 -673.070667 -673.089669 -673.105272 12202.417400 12046.178975 11681.200579 11133.099467 -696.500690 -696.527404 -696.549010 -696.566744 12179.509026 12025.833334 11668.221161 11197.063071 -720.158610 -720.188253 -720.212222 -720.231891 12144.021674 12010.498281 11683.954271 11241.481995 -744.042423 -744.074671 -744.100744 -744.122133 12098.614722 12008.912533 11777.998324 11247.925184 -768.171021 -768.205528 -768.233422 -768.256301 12052.900158 12044.000912 11996.458077 11793.659309 -792.560518 -792.596912 -792.626329 -792.650452 11995.093028 12088.096110 12370.972006 12774.506697 -817.224087 -817.261980 -817.292604 -817.317713 11894.276745 12018.961604 12318.241835 12620.738370 -842.171821 -842.210805 -842.242309 -842.268134 11756.644350 11893.782447 12151.899460 12375.884131 -867.410615 -867.450273 -867.482316 -867.508580 11588.952650 11770.888934 12261.482205 13151.400289 -892.944079 -892.983979 -893.016214 -893.042631 11364.062602 11511.619860 11907.803338 12721.163038 -918.772464 -918.812170 -918.844245 -918.870526 11110.937478 11175.425773 11183.830295 10942.006128 -944.892631 -944.931703 -944.963261 -944.989115 10896.594402 10988.844531 11157.313692 11168.106157 -971.298033 -971.336031 -971.366716 -971.391849 10701.239141 10840.959659 11289.746466 12187.231061 -997.978726 -998.015212 -998.044672 -998.068795 10481.205272 10552.727251 10688.374568 10932.787174 -1024.921412 -1024.955954 -1024.983840 -1025.006668 10285.438204 10301.341026 10221.216218 9899.436131 -1052.109494 -1052.141672 -1052.167642 -1052.188897 10170.125010 10214.713896 10336.936223 10478.516490 -1079.523168 -1079.552573 -1079.576297 -1079.595706 10121.163447 10177.437799 10324.542392 10569.612053 -1107.139529 -1107.165766 -1107.186926 -1107.204229 10121.252589 10162.962283 10236.138212 10328.452704 -1134.932699 -1134.955392 -1134.973684 -1134.988631 10171.687814 10213.333791 10228.962191 10021.755386 -1162.873976 -1162.892768 -1162.907904 -1162.920260 10258.511197 10338.083669 10605.697794 11139.670423 -1190.931999 -1190.946557 -1190.958267 -1190.967810 10339.371594 10385.382952 10407.532524 10388.144400 -1219.072932 -1219.082946 -1219.090979 -1219.097504 10416.089793 10477.220484 10554.351784 10437.470333 -1247.260656 -1247.265841 -1247.269968 -1247.273289 10457.046858 10560.800780 10887.591820 11633.989798 -1275.456981 -1275.457081 -1275.457095 -1275.457040 10405.819347 10440.877453 10490.307447 10687.286336 -1303.621861 -1303.616648 -1303.612363 -1303.608782 10311.561443 10245.637167 9986.079430 9590.416924 -1331.713622 -1331.702897 -1331.694153 -1331.686913 10279.461279 10172.431702 9767.052125 8782.223062 -1359.689199 -1359.672791 -1359.659450 -1359.648439 10348.094891 10306.927774 10266.951045 10360.529319 -1387.504371 -1387.482140 -1387.464084 -1387.449208 10413.809553 10374.102548 10288.660238 10221.339210 -1415.114011 -1415.085842 -1415.062972 -1415.044151 10359.477753 10231.679013 10000.547048 9726.281720 -1442.472339 -1442.438134 -1442.410354 -1442.387515 10144.296266 9854.522998 9173.423454 8338.053790 -1469.533188 -1469.492848 -1469.460038 -1469.433098 9826.246268 9415.366426 8533.215081 7556.564933 -1496.250299 -1496.203678 -1496.165625 -1496.134440 9507.023255 9013.361056 7840.419192 6260.502335 -1522.577682 -1522.524474 -1522.480706 -1522.444964 9305.886150 8880.066958 7896.616074 6295.533381 -1548.470124 -1548.409609 -1548.359002 -1548.317961 9245.037390 8983.018543 8584.647583 8259.618508 -1573.884074 -1573.814494 -1573.754337 -1573.706194 9255.321206 9078.380034 8695.107174 7941.543611 -1598.779377 -1598.696484 -1598.620254 -1598.560635 9294.962608 9208.060835 9093.973357 8529.185000 -1623.123031 -1623.016726 -1622.908786 -1622.827053 9317.582056 9269.808872 9362.298481 9829.072654 -1646.897565 -1646.744385 -1646.567337 -1646.437355 9309.620583 9183.008613 8791.607431 8071.944636 -1670.119400 -1669.867428 -1669.531718 -1669.287539 9338.134518 9242.596895 8949.063979 8081.138041 -1692.875398 -1692.424104 -1691.712751 -1691.179440 9385.893238 9401.031800 9614.291107 10343.550533 -1715.368787 -1714.618215 -1712.975696 -1711.656571 9364.255749 9370.030644 9351.924119 9353.490536 -1737.979254 -1737.346032 -1733.097007 -1729.512105 9271.058650 9298.084799 9263.578563 8862.246012 -1764.082781 -1765.979269 -1750.816925 -1741.494867 9098.319131 9211.763622 9649.694922 10243.441356 -1809.156368 -1800.713031 -1757.047560 -1740.728509 8787.412574 8840.085921 9026.974208 9244.591421 -1828.390585 -1789.371580 -1736.738831 -1720.918318 8387.820169 8307.959446 8080.482464 7673.909281 -1742.596695 -1716.526901 -1692.380344 -1682.457097 8028.512366 7873.826831 7446.613667 6768.156879 -1652.058998 -1644.919447 -1635.822618 -1630.600945 7788.374764 7654.418555 7329.237180 6699.861681 -1580.066246 -1577.191099 -1573.277829 -1570.824233 7635.730484 7538.594915 7445.034714 7467.705597 -1510.687469 -1509.432225 -1507.710113 -1506.576480 7487.451186 7325.865416 6946.203888 6332.106893 -1441.535851 -1440.914836 -1440.109259 -1439.557754 7327.224508 7101.093220 6644.862360 6269.246483 -1371.589967 -1371.222472 -1370.796872 -1370.492048 7189.414903 6913.613153 6267.882475 5607.959599 -1300.389856 -1300.122342 -1299.852209 -1299.648791 7136.378412 6900.083940 6342.513824 5524.449563 -1227.702545 -1227.472665 -1227.264890 -1227.101764 7176.461904 7067.899276 6890.928114 6672.005573 -1153.392914 -1153.176283 -1152.993687 -1152.846367 7225.521582 7223.791112 7364.141198 7636.009516 -1077.370730 -1077.159980 -1076.990679 -1076.851425 7195.398161 7194.970522 7290.193799 7449.248080 -999.567389 -999.365177 -999.212234 -999.083237 7082.101422 7031.321363 6963.259954 6982.636059 -919.922433 -919.742551 -919.625601 -919.520040 6934.385046 6834.707634 6678.579069 6586.294407 -838.368349 -838.245948 -838.216147 -838.167890 6801.416141 6664.015974 6416.122758 6182.239019 -754.800689 -754.820568 -755.000909 -755.090043 6713.027238 6569.663669 6367.649731 6336.324880 -669.007290 -669.377047 -670.060341 -670.471639 6666.672904 6507.723113 6251.113592 6151.623330 -580.489643 -581.738559 -583.619475 -584.763347 6665.302103 6495.403279 6164.858403 5845.122556 -487.977327 -491.568609 -496.268741 -498.979074 6715.634888 6583.745532 6317.697100 5921.231802 -387.927209 -398.540600 -409.577615 -415.203192 6787.178763 6730.337685 6666.156010 6442.749641 -268.632506 -305.424854 -327.294454 -337.092133 6821.243376 6781.758736 6670.039182 6181.148194 5802.638030 5354.637729 4918.635017 4183.757017 3729.527246 3926.613119 3780.699753 3691.685523 3788.435038 3882.563680 3872.749331 3841.778169 3795.738703 3737.648661 3669.473301 3592.823181 3509.140884 3419.732905 3325.757364 3228.207705 3127.905773 3025.506695 2921.513508 2816.298069 2710.124809 2603.174577 2495.566666 2387.377954 2278.658729 2169.445199 2059.768985 1949.664015 1839.171253 1728.341710 1617.238090 1505.935392 1394.520707 1283.092384 1171.758691 1060.635953 949.845999 839.512297 729.753194 620.668311 512.308432 404.604487 297.190547 188.925997 76.416072 -51.711401 -162.183644 -223.232585 -255.870148 -269.589355 6806.499789 6741.781441 6589.638655 6205.043051 5806.762943 5377.223246 4924.866999 4514.292290 4302.898625 4214.447946 4062.232446 3970.171003 3925.619935 3904.580856 3879.814427 3843.264076 3795.101999 3736.270151 3667.941489 3591.386849 3507.894669 3418.699124 3324.924307 3227.548656 3127.389004 3025.100877 2921.190568 2816.034509 2709.902070 2602.978819 2495.388227 2387.210674 2278.499244 2169.292289 2059.623006 1949.526418 1839.044202 1728.227781 1617.140040 1505.855990 1394.462626 1283.058170 1171.750836 1060.657209 949.900202 839.606385 729.902071 620.906588 512.719143 405.391716 298.876049 192.954429 87.421848 -14.809177 -102.800778 -164.676267 -201.467095 -217.338888 6773.731336 6690.479902 6512.155653 6220.303475 5850.299859 5455.966708 5083.300831 4754.592988 4490.851039 4294.062502 4146.470105 4041.973630 3974.584284 3929.186653 3889.719450 3846.482624 3795.434899 3735.457503 3666.764686 3590.188619 3506.815572 3417.785559 3324.178761 3226.953881 3126.920153 3024.731798 2920.897068 2815.795916 2709.701781 2602.804249 2495.230430 2387.063794 2278.359933 2169.159140 2059.496055 1949.406722 1838.933496 1728.128204 1617.053930 1505.785740 1394.410596 1283.026693 1171.742379 1060.674863 949.948930 839.696047 730.054645 621.173365 513.221623 406.418615 301.111244 197.989424 98.685622 6.926743 -71.057272 -129.591154 -166.646851 -183.161714 6749.426127 6659.996578 6478.676379 6204.806808 5862.699350 5493.022065 5134.179555 4812.757467 4546.346644 4339.231839 4184.399738 4073.389939 3996.574060 3941.368315 3894.946140 3847.910952 3795.100140 3734.419881 3665.534230 3588.997575 3505.760277 3416.895954 3323.452421 3226.373217 3126.461526 3024.370548 2920.610279 2815.563827 2709.508337 2602.637119 2495.080695 2386.925477 2278.229466 2169.034849 2059.377686 1949.295043 1838.829963 1728.034699 1616.972557 1505.718674 1394.359991 1282.994651 1171.731039 1060.686711 949.987618 839.768392 730.175385 621.376356 513.585729 407.125454 302.563212 200.999149 104.548382 16.794139 -57.555033 -114.245823 -150.878315 -167.435541
</DataArray>
<DataArray type="Float64" Name="Velocity" NumberOfComponents="3" format="ascii">