<VTKFile type="PolyData">
<PolyData>
<Piece NumberOfPoints="2064" NumberOfVerts="2064" NumberOfLines="0" NumberOfStrips="0" NumberOfPolys="0">
<PointData>
<DataArray type="Float64" Name="Pressure" format="ascii">
 22613.671214 22601.082096 22547.443363 22420.360704 22201.633782 21891.732145 21491.969120 21021.734314 20525.943663 20049.508548 19594.366277 19112.778227 18542.021655 17821.489866 16974.453590 16080.161594 15159.180393 14175.556920 13129.632820 12090.162635 11170.334170 10426.971417 9827.944573 9307.416101 8813.932335 8326.738154 7854.112802 7414.329574 7009.734291 6628.979637 6262.201115 5905.165556 5556.878969 5217.647218 4888.243586 4569.566747 4262.489930 3967.788223 3686.097425 3417.888315 3163.452283 2922.897925 2696.158436 2483.009074 2283.093744 2095.960393 1921.106543 1758.039113 1606.356488 1465.864650 1336.738538 1219.720141 1116.270849 1028.449786 958.286918 906.999707 874.950805 861.437405 22643.467305 22642.353318 22605.814056 22483.365888 22254.925238 21951.986048 21562.690238 21102.161565 20631.538387 20216.614472 19849.615013 19428.016520 18891.800109 18079.592094 17069.096412 16100.250999 15199.846590 14216.851182 13112.103719 11953.717221 10966.747273 10242.651148 9698.921193 9229.067989 8771.350954 8296.474014 7817.615667 7382.131248 6991.829008 6621.454264 6259.590865 5904.784907 5557.622197 5219.019737 4890.020556 4571.638328 4264.792506 3970.274643 3688.724964 3420.614734 3166.235588 2925.697661 2698.937426 2485.735068 2285.740729 2098.509420 1923.545821 1760.362717 1608.560410 1467.938864 1338.658356 1221.462677 1117.940298 1030.550712 961.700824 912.155250 881.464552 868.598636 22702.209189 22741.477805 22775.367850 22695.478232 22419.751522 22179.203952 21804.032279 21331.816754 20856.415016 20552.184750 20435.333694 20093.020210 19798.270438 18716.696054 17153.502301 16045.880499 15389.275706 14467.563066 13282.371163 11692.435049 10491.679782 9863.321749 9451.953969 9093.372833 8714.012317 8264.114673 7734.159936 7301.948987 6958.430485 6610.499563 6255.046595 5903.483079 5557.844270 5220.014705 4891.460605 4573.373716 4266.745862 3972.396351 3690.974870 3422.955373 3168.630484 2928.111768 2701.338309 2488.094114 2288.033994 2100.717759 1925.653715 1762.354638 1610.412667 1469.604666 1340.048690 1222.453559 1118.579761 1032.089411 967.270450 922.784014 895.370209 883.972784 22770.138272 22885.751728 23088.022726 23132.623474 22619.435216 22759.804389 22593.255990 22070.043904 21677.958501 21115.014606 21729.404541 20892.563846 21313.363102 19397.645069 16726.262982 15305.304629 15788.995556 15486.686461 14486.338050 11191.714568 9757.382746 9260.300431 9157.106155 8838.805685 8592.451284 8371.042032 7501.028842 7142.427183 6958.032302 6599.680459 6251.650296 5902.681887 5558.203951 5220.976279 4892.788336 4574.958101 4268.527416 3974.334347 3693.034592 3425.103454 3170.833897 2930.338434 2703.558299 2490.280917 2290.165576 2102.777223 1927.629318 1764.238632 1612.197999 1471.278137 1341.579421 1223.779974 1119.554081 1033.358616 981.699167 950.507577 928.083160 918.187443 22794.172512 22992.272940 23387.023471 23441.795939 23988.622511 12393.161363 21444.186854 12812.067959 14898.418992 8818.341142 14023.999204 12122.605040 26855.313260 13110.474343 15551.679121 26439.544520 12739.430693 14440.868147 15356.333743 13384.975271 20451.170014 22132.994067 9703.804723 14574.871006 15604.063565 23163.616613 14291.632001 16563.534255 13076.638440 16156.403072 14753.238157 -1926.232860 12565.032444 10260.347552 14630.555135 14956.615759 -5116.570555 14646.624822 16211.638978 15865.718429 -1153.890554 10348.218157 14991.071337 9857.453525 1032.086546 1018.020286 996.688136 985.364274 22708.416219 22956.890925 23520.507604 23978.918399 17989.617690 -23972.839806 14902.325042 11227.312017 14692.376879 13019.584461 14658.526439 9191.256423 15321.775895 15339.706585 9137.957754 8861.826873 15305.504528 8285.859749 12586.502008 13679.791143 13397.073052 23803.348312 5971.491021 6525.193329 15202.689821 13315.471262 11467.348280 13529.030803 13421.071078 14943.723491 15208.591164 12917.239170 15170.629714 13440.978528 13803.959430 15257.433015 13809.803792 7875.698691 17161.400136 18187.674515 12398.436213 14385.440837 14019.951710 10567.430555 1179.974778 1158.150708 1121.034967 1099.427528 22470.329571 22703.094877 23279.260124 24311.115364 9515.036278 15820.798060 13297.407626 12243.440871 10137.468583 16108.408996 7953.597390 13687.361209 15661.292992 15572.433180 11170.810240 15542.961471 10921.971559 11989.630828 18709.307099 18945.202230 11032.341037 15030.803380 13250.820956 9822.366214 15115.167626 10928.395126 14322.308300 8816.439177 12445.978454 12676.236993 13397.480233 11641.295762 23248.473813 10527.523113 13544.749185 23385.415006 -936.238806 13428.249711 17484.017049 21960.808687 18698.196444 13668.480424 17297.450149 23091.397356 1462.706210 1402.367241 1315.178090 1265.342646 22076.708641 22245.479229 22549.844697 22935.803590 13155.112412 15100.559208 13678.488368 13455.023807 14711.812343 9151.856500 14136.937935 16593.656440 16469.742029 7537.639870 9833.092445 9683.757478 10367.662919 6066.975393 1478.338393 9346.247211 7418.314540 14868.436232 11760.981065 12074.385881 15664.149847 11994.570669 11057.764437 14728.605359 15261.280606 16723.535636 14757.161273 14014.716517 22353.840858 9983.828841 24351.293309 10417.422774 18693.305117 16003.339216 9218.820729 6462.823230 23151.647697 7606.087682 12899.053394 14466.757695 1953.588920 1779.936440 1573.245808 1465.626261 21542.780540 21656.204581 22052.210079 22900.499696 9128.994300 14782.286132 15079.478610 13858.215680 12515.933214 25713.070722 8555.021387 15379.457522 12552.931978 15574.128107 11526.977629 19165.009009 3789.322482 9722.384169 12260.410968 16097.888607 10312.549463 13186.517664 13565.381691 5336.619384 15644.301735 15403.680753 11066.552482 9297.912507 14685.123445 12628.367385 22408.188756 15326.489673 7698.348521 12526.475586 12650.753757 -2999.945104 12663.477990 8581.139362 13722.630790 15684.534353 16624.447929 5959.223709 14117.051633 12852.511202 2831.632911 2290.540885 1840.219599 1646.546403 20902.619322 20833.368255 20655.807361 20487.851796 6748.001333 10639.891033 4787.323412 2641.226845 5128.652301 6423.794976 15843.190713 6827.701598 13223.505848 5069.773792 12906.338625 4165.841823 12148.925897 10775.698971 4237.908852 3473.363493 30150.979522 18328.742138 12428.338168 10993.951831 12858.681007 12751.781199 7107.682557 -1031.874538 12947.217572 16927.016989 10186.561065 14579.908801 12444.554335 17014.715455 8115.940939 9949.883848 8881.067669 12272.334915 19310.667186 12617.012724 14891.243614 10666.373812 14641.148975 22999.754460 4312.869006 2675.833307 1982.638448 1725.062237 20287.234550 20077.799380 19450.918389 18017.810203 4477.462166 9299.074087 4055.008747 4068.014689 10118.473867 9862.537618 6836.851251 2904.515110 3277.258148 3979.151497 6916.691891 4244.061789 3690.652101 10085.330259 5499.838978 4617.288454 4647.065664 8938.805806 8741.856125 4204.505596 6279.942004 -7547.408950 8972.314670 11082.510172 11654.855090 10753.940082 15914.607511 -6630.947542 11087.807881 11298.825645 10238.116993 9222.723559 10911.484310 19044.465201 15131.716814 11796.545217 9566.519932 22967.038930 13302.462593 4242.329453 4372.994426 2501.606314 1879.307509 1641.542781 19774.604586 19569.672253 19118.643247 18304.370922 5182.167965 4739.879421 4373.353506 5048.009505 3890.618241 4394.708283 7863.082918 4173.622231 5159.240802 8839.654374 4146.218946 4702.770712 6206.877221 11755.776945 7675.816809 4290.201062 5852.701978 4250.660515 4082.876760 5274.736795 10135.012967 2985.319866 2136.521094 10726.875660 13788.731233 11779.829993 4317.235539 17349.728465 8525.522642 16137.994812 13653.936918 25663.889639 16145.150508 10449.579898 13454.735834 9483.758001 11759.655739 13279.536219 10412.428677 11536.582244 2500.191904 1923.146413 1571.390469 1414.579852 19313.558661 19126.466892 18824.383304 18640.913713 4183.476480 4644.437231 4682.420462 3840.588935 4031.263790 9779.071175 3453.402205 4361.910998 4666.873369 5310.042856 3170.351901 4549.340728 7458.315705 4610.961316 5279.412598 9750.652622 4401.091741 1184.540198 7997.064929 10400.984933 3499.611459 2532.994556 10654.315972 4047.524773 5111.169970 13719.119924 21476.002845 7253.912770 9458.259843 18703.366026 10085.174335 -3413.540637 -9438.543177 17251.860675 8043.618435 7623.888968 14083.140812 15776.962932 16732.681529 22457.461365 1476.890561 1352.464041 1199.743822 1120.379799 18839.828229 18596.910797 18102.423454 17359.628069 3382.228692 4339.750417 9090.118995 4109.663463 4026.972601 9411.060431 9400.732861 4119.954456 4949.987558 4932.144691 5859.676610 4735.493373 3458.861013 3496.946948 5110.076628 4090.191227 4645.441465 8711.074240 4371.627875 4191.908547 3710.136249 2987.585589 9666.486453 6550.429356 4828.690217 8797.172109 4070.136492 11363.215872 13192.214515 15163.421697 6000.629078 6017.512673 4855.553285 10744.117890 16505.518746 13073.784011 -935.471035 23031.689217 22406.245948 12191.927593 958.863280 921.811294 863.956154 831.188565 18353.416555 18033.430422 17278.383239 15999.554391 10511.164225 3999.419588 9652.416563 10049.413557 10740.525041 9883.896661 11795.034860 10439.637677 4120.360249 9686.699802 9961.090255 6802.061757 3036.694063 3711.011675 5008.724537 5091.466830 4088.960452 6713.394306 4271.168344 3600.145714 4132.039421 3316.442422 4840.416050 10428.608683 11509.998997 8861.000055 3908.857121 8405.394029 3552.333315 5046.177750 4672.375054 7708.406820 9263.188271 5287.206356 9450.888315 9237.014952 10613.769503 15654.904568 14468.194197 201.180433 623.770859 615.058896 595.531727 584.579782 17880.341969 17529.957501 16777.420271 15597.211478 8943.003889 3797.286941 9542.023839 9396.845970 7676.526664 13253.370554 8527.424624 8666.320586 7009.259415 10403.878072 9605.270994 4385.366437 3393.092773 9897.835162 5745.912567 10086.255199 6022.699574 9565.362463 9125.954295 4167.888750 9931.927932 3329.888910 4516.734078 4127.398784 10487.105393 3931.361130 4616.180642 9207.725203 5247.306794 4467.060646 4042.577737 4313.815242 4715.962897 4057.074064 3497.038446 8026.620434 7989.856701 8803.382403 8976.069511 10056.981125 396.157359 396.444782 391.455985 389.238650 17421.973584 17062.397525 16314.651371 15488.588983 9749.561812 9915.484368 10637.532636 17720.896363 2945.059116 8585.699900 3290.734450 11205.540133 6029.226688 8714.264860 9731.860698 4780.992557 10453.013892 10374.182895 7471.019467 8580.371200 16874.951628 8532.580774 10123.069888 15347.492187 10068.906886 9900.042868 8269.328734 3541.274877 9977.642901 3111.942223 4751.427338 3997.714989 9166.755980 3351.083957 3846.075469 8611.165523 10241.599599 8110.590398 7511.933156 8965.506313 2812.318202 3550.102310 10607.809912 13934.418923 236.247080 238.888574 238.912019 239.666411 16978.564642 16624.177562 15850.836517 14965.072171 4053.907090 6791.463495 7339.412973 10928.236141 9822.254113 4139.562136 8640.840665 8783.411867 12503.204071 4468.685877 6065.861239 9327.765740 9114.007528 8684.803713 14519.154916 8696.436691 13068.964849 13395.144094 9114.063312 10598.436786 4428.969914 9583.937010 10853.114212 11461.064692 10471.927917 10047.148825 4541.234716 15598.019093 4847.900093 14549.216751 4011.097256 8956.567379 8264.803226 7551.914347 9695.659271 9150.398943 3417.353362 4289.179256 8810.388902 3978.301613 120.468297 123.227172 124.628275 126.080541 16567.130264 16246.095859 15609.207824 14843.936789 8602.963399 9963.806907 8074.997532 9208.262015 4085.450068 14948.054676 12362.311177 3284.381400 3618.287753 13717.388145 14149.667026 9098.168937 10397.233044 2806.669944 3985.135619 11170.111341 13580.716574 11047.087774 4130.093454 3619.883817 13323.565188 10159.371178 9836.198732 10735.634512 10974.836582 10896.996640 10264.685687 11546.449088 5107.238676 7798.271995 12006.428731 8030.956201 4374.117240 7730.169068 9156.841623 5333.141337 9976.120624 10310.859769 6950.705665 9907.117496 33.842511 36.084572 37.584589 38.946844 16204.524003 15881.892961 15239.507777 14390.242791 3712.368408 14262.264676 12740.187154 4384.472751 10578.997920 9302.960390 3570.513102 9087.464594 4703.256801 13505.245148 11024.334586 11016.402645 8605.636193 8663.918651 8980.005443 4261.890227 10019.391798 3910.123176 4240.704384 3287.486864 3737.351045 14200.949196 -2808.247416 3290.963855 17157.465614 -18248.217259 3234.279935 14738.256057 9683.588442 5875.656322 12335.645505 6004.833361 13415.032871 9653.069738 9761.189170 9798.325577 9150.158053 1701.260310 4361.281324 4794.046253 -33.447808 -31.793995 -30.566534 -29.498406 15916.995199 15551.991021 14595.373395 12992.836489 14635.408774 6907.107705 4572.974823 15441.163593 5166.497287 9934.267144 2593.712817 17942.362929 9889.604843 9251.907535 11612.959784 11343.171621 4193.456325 9134.405563 15677.579091 9246.373910 13889.259348 22607.518444 10814.880123 6418.414782 4529.573039 11190.975141 9955.596403 4468.314390 1091.267601 15269.300620 13341.256045 8345.229384 20238.172127 7085.761564 20865.846298 8678.787113 13419.127088 14072.236308 16162.487296 17215.296186 4223.974175 11120.209565 4061.633640 3011.612635 -87.902961 -86.738245 -85.829346 -85.053089 15709.286020 15390.002132 14451.064601 12783.796220 7002.866184 8942.926723 12666.055099 14438.769508 11516.039115 11085.972715 9654.037566 12363.895650 6274.211527 12476.389918 12558.848004 -2639.972844 8535.690875 10357.664262 13960.952943 13605.523780 14744.914577 13140.107980 15448.719096 12023.590771 12553.515394 7087.002071 7972.489203 9258.545683 19888.297435 10057.933401 11134.400456 12265.184924 6046.407975 13180.192607 13156.287583 17005.065777 3779.820582 13317.507823 19056.837310 12080.680847 13896.103736 4737.896293 7444.499804 3120.569038 -133.824040 -133.021321 -132.377885 -131.833511 15503.625296 15314.431869 14872.211496 14402.726993 1643.026854 9882.485315 17346.899828 3909.884567 5794.786904 11744.062989 3728.446275 18946.981310 8366.406095 -1838.361496 13102.025650 15400.844735 9591.783287 4050.866378 3042.339793 11085.250240 11629.326474 13244.433337 8813.247066 4571.397425 3878.610774 10747.410340 6820.678032 19619.906661 8597.053665 8261.796553 14246.423091 15900.970175 14944.631428 16890.867017 11075.237576 8972.903914 8294.378167 16080.353098 8161.882809 12126.573029 7957.822071 13000.317278 15537.995295 2334.675225 -174.041827 -173.491834 -173.044408 -172.667883 15224.944711 15101.061831 14858.049551 14790.393096 14215.597070 8197.319407 15646.504903 8249.435227 9429.445854 13100.051594 13231.966761 11173.837911 13537.773118 22311.872789 14739.070623 10999.470901 13388.699586 5541.349943 11181.312177 12356.129355 18100.229943 12580.140983 18585.871210 5604.847188 14447.304752 5329.143868 5103.387369 7622.923875 16893.772703 8167.324119 12970.922203 17488.295232 8892.934302 8367.050071 10289.773313 9801.534692 13715.681443 24079.863233 13694.275043 15229.116623 9829.127895 16665.606030 10202.446130 10767.867679 -210.407717 -210.028494 -209.717570 -209.456835 14911.826513 14801.777428 14437.294674 13667.192666 -244.126821 -243.860969 -243.642249 -243.459353 14647.474666 14628.783071 14584.110477 14368.871654 -275.982634 -275.791561 -275.634277 -275.503106 14440.219513 14518.999177 14687.221091 14880.451065 -306.486725 -306.345167 -306.228791 -306.131998 14269.538262 14419.028561 14776.048184 15111.042616 -335.977056 -335.868764 -335.779938 -335.706255 14140.844150 14298.028727 14625.946935 15119.184373 -364.681600 -364.596233 -364.526393 -364.468604 14111.517999 14249.428591 14348.198452 14324.108720 -392.758927 -392.689934 -392.633629 -392.587140 14227.791768 14400.751688 14391.818653 13524.828230 -420.323772 -420.266988 -420.220741 -420.182625 14439.216116 14704.968745 15160.833671 15595.638182 -447.462952 -447.415690 -447.377261 -447.345632 14657.302547 14895.662195 15171.419894 15236.558098 -474.245173 -474.205659 -474.173569 -474.147184 14911.946180 15194.294685 15513.404469 15048.819782 -500.727041 -500.694059 -500.667295 -500.645304 15183.911970 15653.015574 16777.675726 18372.083781 -526.956718 -526.929389 -526.907223 -526.889020 15323.317459 15841.431504 17024.371156 18843.673332 -552.976152 -552.953804 -552.935682 -552.920804 15259.124614 15705.184912 16535.802143 17334.971218 -578.822433 -578.804520 -578.789995 -578.778072 15038.177701 15428.965156 16212.310059 17213.402111 -604.528637 -604.514693 -604.503384 -604.494101 14718.111953 15039.126183 15591.181876 16124.059155 -630.124355 -630.113964 -630.105533 -630.098611 14364.331161 14651.380505 15219.462651 16062.096780 -655.636033 -655.628814 -655.622948 -655.618132 14014.743646 14262.550476 14637.554042 15021.926863 -681.087203 -681.082795 -681.079205 -681.076254 13689.757867 13959.659714 14421.168831 14761.947027 -706.498642 -706.496703 -706.495110 -706.493796 13355.428802 13665.032736 14367.248588 15398.511125 -731.888489 -731.888689 -731.888825 -731.888928 12961.347084 13231.311854 13803.433483 14661.865862 -757.272337 -757.274354 -757.275959 -757.277266 12516.937124 12707.981600 13056.000472 13574.893932 -782.663302 -782.666823 -782.669645 -782.671947 12067.901427 12200.115074 12355.502361 12218.342090 -808.072088 -808.076808 -808.080598 -808.083693 11639.262585 11781.872674 12170.897595 12819.589042 -833.507039 -833.512657 -833.517173 -833.520861 11205.674464 11288.893652 11493.630229 11936.353446 -858.974187 -858.980409 -858.985413 -858.989499 10796.401023 10785.879745 10691.899246 10572.793311 -884.477301 -884.483840 -884.489098 -884.493391 10486.346308 10447.073384 10282.814573 10027.027125 -910.017934 -910.024507 -910.029791 -910.034103 10297.809332 10319.329214 10400.673462 10503.606838 -935.595470 -935.601800 -935.606887 -935.611035 10164.247972 10240.124154 10533.643184 11283.840623 -961.207174 -961.212992 -961.217662 -961.221467 10015.748414 10058.601056 10155.732823 10274.959552 -986.848245 -986.853287 -986.857328 -986.860616 9857.327275 9864.156601 9871.816122 9805.974928 -1012.511873 -1012.515883 -1012.519089 -1012.521689 9712.950152 9699.775544 9702.329244 9775.468884 -1038.189301 -1038.192032 -1038.194202 -1038.195951 9594.985476 9556.387702 9451.506178 9262.630850 -1063.869894 -1063.871108 -1063.872049 -1063.872788 9517.339035 9482.401502 9461.608033 9591.968753 -1089.541210 -1089.540677 -1089.540205 -1089.539782 9476.403701 9432.816024 9340.060708 9232.338288 -1115.189081 -1115.186582 -1115.184519 -1115.182791 9472.344661 9439.809999 9405.185831 9360.576106 -1140.797694 -1140.793023 -1140.789203 -1140.786030 9488.056362 9471.365166 9478.236170 9597.845214 -1166.349691 -1166.342653 -1166.336916 -1166.332172 9491.108115 9483.270870 9531.190991 9697.252334 -1191.826259 -1191.816671 -1191.808872 -1191.802434 9447.612157 9423.801104 9400.799493 9541.062344 -1217.207238 -1217.194933 -1217.184935 -1217.176693 9344.596997 9300.736683 9244.890262 9436.658472 -1242.471233 -1242.456056 -1242.443735 -1242.433587 9184.599999 9114.594576 8931.872332 8794.068051 -1267.595724 -1267.577537 -1267.562782 -1267.550635 8980.294239 8921.531751 8808.749250 8696.407601 -1292.557194 -1292.535875 -1292.518585 -1292.504359 8720.379004 8673.064934 8593.957411 8420.209477 -1317.331250 -1317.306691 -1317.286781 -1317.270405 8392.538236 8342.033771 8313.110950 8358.903144 -1341.892756 -1341.864867 -1341.842262 -1341.823676 8007.149842 7912.129487 7723.892589 7703.696195 -1366.215967 -1366.184674 -1366.159310 -1366.138463 7616.102973 7484.299993 7159.339509 6533.521635 -1390.274672 -1390.239911 -1390.211732 -1390.188580 7268.496748 7147.978451 6942.041938 6708.445700 -1414.042338 -1414.004053 -1413.972998 -1413.947495 6973.441007 6854.230798 6643.740380 6570.173110 -1437.492274 -1437.450395 -1437.416372 -1437.388456 6741.386770 6620.753466 6328.305286 6023.922929 -1460.597815 -1460.552220 -1460.515042 -1460.484589 6583.552257 6506.835428 6317.553560 5636.791714 -1483.332572 -1483.282983 -1483.242217 -1483.208941 6465.643333 6464.405029 6616.413515 7006.301594 -1505.670821 -1505.616564 -1505.571170 -1505.534380 6318.368010 6301.873014 6304.087940 6360.439097 -1527.588230 -1527.527671 -1527.475133 -1527.433149 6138.821683 6079.629410 5976.715973 5925.478275 -1549.063386 -1548.992596 -1548.926863 -1548.875594 5963.403536 5861.586489 5556.218885 4956.734892 -1570.081164 -1569.990879 -1569.897430 -1569.826870 5825.168110 5755.888688 5648.103186 5433.442919 -1590.640260 -1590.509332 -1590.353371 -1590.238569 5697.175710 5636.213418 5565.397137 5573.118010 -1610.769219 -1610.552937 -1610.250783 -1610.027027 5562.983967 5475.666231 5209.730819 4675.044300 -1630.554406 -1630.179696 -1629.525855 -1629.013729 5441.165879 5383.894865 5315.635757 5175.173796 -1650.155480 -1649.638626 -1648.088405 -1646.747721 5320.949189 5262.496232 5137.555144 5104.094644 -1669.875814 -1670.143303 -1665.783752 -1661.949948 5213.131784 5163.926979 4980.162525 4488.385855 -1695.755709 -1698.440511 -1681.251176 -1671.039468 5126.122063 5142.720284 5254.187620 5476.368542 -1753.511810 -1732.355023 -1683.713296 -1666.672363 5027.014504 5053.458130 5151.043510 5396.423163 -1771.897206 -1713.119161 -1658.435498 -1642.410694 4918.692801 4928.581250 4892.827175 4808.050837 -1663.436248 -1633.247847 -1609.196542 -1598.703428 4827.809564 4865.594393 4978.551284 5125.056977 -1564.197387 -1556.385981 -1546.654850 -1541.137132 4740.716590 4783.536661 4891.731923 4970.966507 -1485.339665 -1482.263368 -1478.088777 -1475.494651 4644.558607 4681.452857 4766.228621 4889.311720 -1409.771234 -1408.471499 -1406.661586 -1405.481881 4535.564832 4567.519622 4643.174498 4791.114145 -1334.937126 -1334.334185 -1333.519677 -1332.970538 4414.081280 4437.727019 4520.719142 4710.346690 -1259.796303 -1259.475944 -1259.078199 -1258.800077 4289.730247 4282.256748 4269.802949 4284.545948 -1183.913470 -1183.708750 -1183.484974 -1183.321180 4194.060461 4161.468980 4079.519976 3942.090787 -1107.094240 -1106.936934 -1106.785912 -1106.670026 4147.154727 4122.614192 4062.103793 3919.597860 -1029.244711 -1029.107518 -1028.988217 -1028.893144 4124.876739 4125.595587 4207.399601 4416.635555 -950.313877 -950.187635 -950.085988 -950.002454 4085.277973 4059.682654 4049.895096 4144.423472 -870.268377 -870.154214 -870.071521 -870.000452 4036.752715 3973.954336 3821.237342 3655.001832 -789.078286 -788.988127 -788.941774 -788.894760 4017.562923 3962.628211 3876.991395 3871.935560 -706.702111 -706.668032 -706.705168 -706.713331 4036.007129 3997.820470 3861.165283 3638.651310 -623.058389 -623.159055 -623.394243 -623.532075 4071.524762 4060.505010 3959.116531 3710.771482 -537.959149 -538.388380 -539.095395 -539.535513 4085.076959 4068.108427 3935.046081 3612.482726 -450.942272 -452.195682 -454.025049 -455.151472 4073.198797 4060.552065 4034.261901 3969.649496 -360.815784 -364.265824 -368.737042 -371.330144 4040.240144 4024.438099 4013.528621 4045.735724 -264.247254 -274.290595 -284.698917 -290.018872 3993.142175 3960.337148 3884.264449 3797.762531 -150.238289 -184.879594 -205.416093 -214.628983 3948.358624 3905.114399 3797.132414 3600.085678 3368.409498 3065.677267 3031.028957 2945.264587 3033.838494 3195.514555 3319.819372 3346.116807 3348.922513 3337.565306 3316.502544 3288.001982 3253.283276 3213.029996 3167.653817 3117.439031 3062.621516 3003.429038 2940.098384 2872.879181 2802.030877 2727.817015 2650.499253 2570.332443 2487.561239 2402.418254 2315.123508 2225.884824 2134.898794 2042.352024 1948.422402 1853.280257 1757.089293 1660.007281 1562.186511 1463.774024 1364.911664 1265.735970 1166.377911 1066.962386 967.607226 868.421092 769.498688 670.909539 572.671119 474.683213 376.561895 277.188685 173.313226 54.130229 -49.207689 -106.372648 -136.909947 -149.761049 3917.109690 3874.252124 3779.413649 3622.598611 3458.387200 3334.245094 3329.296011 3275.842090 3284.136147 3309.661901 3337.580214 3351.291884 3349.868745 3337.072354 3315.536985 3286.906086 3252.172785 3211.941126 3166.597858 3116.421275 3061.646596 3002.501556 2939.222311 2872.057268 2801.264408 2727.105868 2649.842172 2569.727385 2487.005720 2401.909639 2314.659229 2225.462510 2134.516340 2042.007604 1948.114446 1853.007405 1756.850346 1659.801148 1562.012167 1463.630482 1364.797971 1265.651249 1166.321494 1066.934143 967.608378 868.456130 769.579984 671.068440 572.985102 475.344570 378.063675 280.896900 183.607423 88.894249 7.058199 -50.588702 -84.892036 -99.713503 3899.832992 3862.147107 3786.125687 3680.263859 3569.147178 3475.531323 3416.249697 3373.830049 3355.633392 3354.058103 3358.369856 3359.148935 3352.291380 3337.327201 3314.974670 3286.061230 3251.247942 3211.009461 3165.685345 3115.538333 3060.799144 3001.694152 2938.458610 2871.339831 2800.594549 2726.483696 2649.266793 2569.197185 2486.518655 2401.463490 2314.251791 2225.091725 2134.180361 2041.704815 1947.843450 1852.766994 1756.639454 1659.618813 1561.857495 1463.502629 1364.696157 1265.574828 1166.270156 1066.908418 967.610840 868.494271 769.673050 671.263694 573.396504 476.244591 380.099119 285.574501 194.177331 109.401433 37.132539 -17.221886 -51.680466 -67.067734 3891.464050 3856.576022 3790.280156 3700.905694 3605.516165 3520.574874 3455.173084 3410.320531 3384.353939 3372.656244 3367.859602 3362.827165 3353.105576 3336.956504 3314.181476 3285.150938 3250.329168 3210.115125 3164.823304 3114.710370 3060.006834 3000.939813 2937.744781 2870.668601 2799.967135 2725.900322 2648.726786 2568.699186 2486.060870 2401.043919 2313.868414 2224.742627 2133.863804 2041.419268 1947.587585 1852.539654 1756.439625 1659.445579 1561.710009 1463.380091 1364.597811 1265.500006 1166.218412 1066.879855 967.606913 868.519693 769.740297 671.403599 573.682757 476.848412 381.401153 288.344928 199.647156 118.674705 49.880956 -2.683234 -36.705020 -52.117437
</DataArray>
<DataArray type="Float64" Name="Velocity" NumberOfComponents="3" format="ascii">