<VTKFile type="PolyData">
<PolyData>
<Piece NumberOfPoints="2064" NumberOfVerts="2064" NumberOfLines="0" NumberOfStrips="0" NumberOfPolys="0">
<PointData>
<DataArray type="Float64" Name="Pressure" format="ascii">
 27079.383959 27046.163158 26996.242840 26908.039504 26749.929553 26476.089959 26080.439380 25628.066935 25141.488190 24575.342230 23893.429579 23101.494275 22217.146603 21229.513963 20108.224144 18865.043225 17567.412251 16287.877155 15069.330184 13940.624400 12927.783882 12056.793990 11334.913827 10736.317857 10219.343237 9750.456248 9310.433802 8889.783457 8484.040155 8091.201079 7710.496210 7341.778473 6985.198657 6641.018576 6309.497726 5990.823831 5685.072847 5392.190470 5111.989853 4844.161298 4588.290177 4343.879755 4110.376053 3887.192570 3673.733515 3469.415331 3273.688131 3086.062074 2906.150878 2733.759915 2569.075703 2413.052984 2268.060795 2138.475386 2030.180507 1948.416423 1895.958672 1872.436738 26928.928620 26894.640398 26833.079717 26734.995783 26594.963225 26324.858145 25873.120613 25419.636728 25002.268941 24489.571440 23828.903290 23057.449381 22226.669436 21298.333678 20171.855526 18864.169016 17508.600030 16206.844806 14969.945595 13823.491289 12791.296312 11922.212939 11235.565585 10681.247203 10194.402256 9740.547010 9307.169836 8889.407731 8484.940819 8092.702185 7712.319093 7343.806917 6987.378197 6643.314765 6311.880201 5993.261499 5687.533674 5394.642933 5114.404726 4846.513161 4590.558420 4346.048976 4112.435852 3889.136677 3675.557983 3471.115008 3275.249366 3087.446781 2907.260862 2734.358391 2568.627981 2410.472988 2261.624485 2126.690833 2013.645897 1929.600993 1876.735190 1853.335719 26668.614627 26635.241498 26555.794596 26443.278654 26397.521745 26174.727708 25503.532209 25032.643857 24816.911205 24420.453208 23749.991982 22970.189288 22270.606883 21511.332530 20339.199730 18831.695449 17347.825100 16041.304577 14766.361997 13581.379418 12477.710509 11597.082149 11016.927817 10582.089152 10155.842866 9725.009819 9301.356895 8887.787372 8485.157145 8093.753413 7713.783068 7345.505246 6989.231031 6645.279144 6313.925009 5995.358358 5689.654596 5396.760659 5116.493896 4848.551503 4592.527590 4347.934904 4114.228500 3890.829039 3677.143839 3472.584161 3276.577163 3088.570182 2908.022582 2734.375290 2566.982583 2405.020927 2247.746831 2098.770168 1972.629777 1884.652791 1832.569101 1810.222170 26318.094625 26311.505361 26304.187031 26338.380141 26535.817595 26426.624351 25567.102478 25122.302311 25165.704755 24763.909158 23860.757629 22936.959253 22322.722261 21650.440389 20367.408329 18632.999288 17144.762645 15976.676128 14611.251228 13319.806948 12045.151633 11240.190286 10857.597655 10535.350589 10133.235321 9715.920535 9298.277875 8887.313780 8485.816531 8094.928711 7715.222340 7347.106672 6990.950335 6647.090953 6315.807844 5997.289827 5691.610863 5398.717508 5118.428203 4850.442562 4594.358053 4349.691254 4115.900998 3892.411058 3678.630293 3473.968177 3277.842864 3089.676187 2908.862597 2734.679309 2566.049806 2400.896221 2234.119758 2049.854786 1894.264088 1808.753909 1763.019577 1743.871405 25891.209271 25937.814221 26165.409215 26594.525151 20370.100943 26714.548309 17584.289786 24755.637512 19545.142611 11310.192650 13787.558083 19083.541760 22350.783111 10746.913156 18694.965332 23397.234266 23976.163835 16338.296318 19384.565887 14278.818217 21943.405773 20092.527652 21106.595579 16587.310320 15545.352401 22735.793099 13970.449514 19566.301244 14998.944757 14969.600330 26096.192392 12411.090130 16687.404993 22890.595375 26559.981482 23504.223864 13586.769714 19875.240181 23847.928370 14656.677000 1839.903000 22124.089250 14698.160909 24084.374815 1752.869263 1702.191706 1671.873203 1658.340649 25389.611939 25422.550720 25580.367286 25827.089771 18793.428135 10850.187096 14481.388168 9158.532339 14713.907737 14133.624810 11211.159183 21091.937116 20238.634866 14748.002593 23067.105509 22726.047215 12607.489322 20602.594471 13975.798676 12499.449443 19748.561782 21073.284601 20385.213210 21922.901313 11665.612552 17807.887564 16426.919517 19515.176541 14707.517495 17852.574608 13991.964169 16927.594520 17974.716994 18434.733141 17962.378887 27278.500920 14154.220124 25235.894322 18753.223396 18524.162769 19253.407003 17403.379588 16610.387641 18832.645248 1597.365308 1582.944128 1567.816775 1560.154636 24856.036756 24834.152045 24755.375974 24557.799501 21046.033468 10102.522102 9374.908603 10806.290401 9696.131145 12844.875856 15473.671295 13896.070339 12658.712314 12152.322484 11711.124876 10002.682610 13821.511974 18065.276984 13429.487097 26653.866987 9631.410950 11445.808331 13592.336427 11391.193203 18355.903280 23598.119592 11893.016466 24742.095245 13119.098333 14945.148712 14241.172788 15841.036960 24729.871008 26566.054382 18140.466477 21096.923168 8715.908656 17812.718295 14523.848707 19741.263103 24469.611178 15223.798747 21815.884555 23725.443711 1470.777310 1466.054950 1459.736700 1456.136973 24342.701943 24332.463239 24386.315801 24467.639695 25486.883642 14506.639854 10878.388033 14462.879845 14207.899389 9476.233048 12061.853434 13642.130875 13398.311718 20262.480741 9389.097253 20640.650592 10470.653729 15066.154972 8746.223636 20249.411988 20797.685259 12373.308088 9864.127804 23578.734248 12173.841186 11792.739249 21125.742222 12338.315296 26558.191506 13574.811501 13940.098488 14955.926697 21499.288432 23142.663354 21189.646614 18953.154608 26915.660792 9249.427674 21702.524194 11058.586960 19794.506402 15482.699915 24566.787249 18214.088114 1356.590195 1355.093219 1352.674805 1351.242313 23848.483605 23824.652547 23775.205970 23771.091223 9610.550236 11561.320206 12280.444972 24617.360742 15637.954194 22235.535832 17383.946385 12859.830350 -4597.741034 14023.885053 18879.102101 18924.866989 13466.696260 16541.734855 14475.046780 26018.688283 21126.180023 18584.801035 13145.972339 19613.893321 15928.597044 12412.828356 9525.875179 19156.125611 11622.730534 13597.325357 23541.850118 18533.387279 17394.678037 15183.171765 16859.894498 9844.114013 13732.896460 22263.847731 16008.661797 10133.183402 13084.038915 17164.048301 10271.359566 12254.672084 1249.711933 1249.414467 1248.642182 1248.214728 23374.276282 23359.561111 23328.480357 23415.579624 6570.709417 18373.077631 6036.404096 4679.937867 6050.556978 4696.661729 14289.637471 6358.602468 20293.035074 4745.150448 16274.009062 2550.815070 11189.468967 12965.236589 25970.570493 5466.062758 34170.078266 13276.631015 9629.430598 18334.833556 11692.492677 16416.186578 20243.989959 42322.928641 9916.823043 13184.802125 29816.312789 12988.117995 11997.530401 13209.004247 22199.375117 24454.471763 13681.146311 16287.906547 23824.861362 14243.914519 13969.495583 15097.888075 11723.643105 19660.519702 1148.224329 1148.395046 1148.306168 1148.314461 22903.518438 22927.439587 22999.389404 23235.478472 3521.075405 10969.639057 2448.698385 2760.198722 9234.509688 7616.650205 6440.269691 5808.717673 5447.707281 2814.271926 6267.260436 4305.540205 6279.833757 8279.498726 5169.514698 3934.911466 5083.076789 7815.363440 6716.397082 5462.638157 67186.826490 12398.451218 18301.053593 17533.296996 17915.247056 19025.931963 13304.218648 24013.692254 9638.756717 11419.120969 23277.815786 20878.663866 13736.193044 11731.812123 14701.194862 10390.276691 23951.628954 22069.520853 18420.201316 11608.388612 1051.300339 1051.653633 1051.843669 1052.032530 22396.514469 22460.212247 22626.004221 22901.419131 2681.588084 4290.714184 2390.939864 6161.057148 1994.485284 2706.099176 13847.905139 2487.947750 6032.266592 17213.527432 5142.224019 6192.577727 4821.218564 7980.140401 4628.698315 2489.010483 5757.597105 4115.575482 2632.028416 5256.507849 10086.471669 4334.482942 -350.218099 12756.697003 13390.157868 23779.688283 4175.069277 24423.519812 25214.750539 23891.383977 10956.187019 19624.963179 13393.165506 10907.248329 24014.297221 119192.021129 10002.965119 13709.252759 15916.210176 10936.224986 958.527352 958.947339 959.246875 959.506167 21818.327015 21881.826621 22027.086538 22214.103704 2544.163548 5501.384823 6375.405259 1860.127593 1983.162360 8497.082859 3646.141321 2649.988524 2486.323101 5897.064846 2979.228238 3667.858037 6195.900441 3562.797767 5321.455561 7823.597283 5903.024566 5238.090366 15723.891061 9094.546915 5989.536941 5181.106862 8324.826325 2475.041985 6124.479169 17933.476189 21075.366068 6120.969651 15348.379343 14478.359601 20593.532167 22969.895208 27577.824852 14104.744811 21774.545400 21081.424940 10647.457680 11703.424524 13446.119234 23635.388511 869.658007 870.096733 870.434776 870.717692 21173.922265 21214.012827 21315.621344 21475.739488 1879.528983 2053.982940 6287.289049 5967.220154 3585.966145 5825.543312 9176.040214 2240.856205 2799.030645 2616.806293 6360.870420 6061.686401 2699.569751 5083.415195 2690.878850 2722.749881 6137.759211 14280.027912 3947.739470 2445.393047 5693.614854 2805.869057 10023.588250 6459.106440 4077.440089 7106.656669 2360.505296 9282.544498 12763.275436 9573.983760 6164.040757 5868.874837 5662.497767 11745.587214 12892.429605 17346.134978 22616.283926 22857.447920 18434.487863 12984.952225 784.511812 784.949159 785.295871 785.582591 20498.111366 20505.497437 20554.827529 20665.254800 8576.944918 2367.387402 6885.352535 8635.636453 8966.832769 7298.669851 17051.162831 9149.975057 2909.335171 7907.415475 7830.756253 6242.016309 6531.095720 2676.464358 5632.526557 4694.092362 2518.626879 6527.177816 2761.491779 5912.444890 2213.588897 2620.840802 2687.891001 7784.326728 12443.361565 8624.421235 2488.917140 12804.597204 3148.971396 5043.062657 6002.217471 4932.531746 7249.349824 4591.104207 9272.942607 6692.259601 10110.519232 18286.193704 14173.491230 39007.163207 702.935041 703.362434 703.705186 703.987278 19838.935042 19802.393848 19776.874114 19860.591750 6597.720168 2583.929558 7848.296369 13821.564829 24264.919819 18986.007967 11618.216320 12048.224257 5800.786276 7188.676008 17135.301708 2757.997879 1883.323241 9280.886769 6343.955455 9067.196544 5799.538703 11576.617733 8632.991060 2657.579093 10611.723760 2138.438038 2377.252592 2255.696293 12175.077492 3180.878004 2500.874252 8970.347746 5673.633670 3985.563852 2559.926448 3114.594578 5727.211113 5681.918337 3365.742726 6666.715050 5779.914330 8157.542960 4054.334797 13213.907030 624.784217 625.197901 625.531277 625.805099 19250.302243 19145.382825 18868.040996 18708.956791 9002.389680 9069.783458 11390.631838 19518.809279 6294.819882 10376.826023 5682.740041 9552.896903 19276.562599 11354.893519 6498.848096 2219.980660 10307.061492 10072.118463 12351.455140 6773.323856 12745.164808 17609.000328 7904.452100 14272.057662 14150.490283 8252.138477 6270.406193 3933.133987 11446.346135 5995.884755 6057.857296 5597.070222 7241.783058 5932.065248 1933.386942 7490.667568 6845.689154 6645.863022 8798.534312 13160.406677 5968.824005 5722.487372 12906.182753 14762.187013 549.919382 550.317648 550.639267 550.903202 18777.868170 18704.625005 18507.066409 18377.185686 2124.105056 5701.220575 5949.658371 14178.100102 8230.989824 5155.567470 16221.033152 15133.477561 15548.215485 3311.357096 5379.117903 7769.948241 9396.919707 10570.146192 18712.300382 7138.533403 13631.877424 5185.640942 6217.175407 22387.589836 2512.676734 8262.405203 21418.133925 9329.099032 11092.981103 8122.789730 5989.228995 12735.876364 2382.917703 19129.275507 2476.549847 6834.937996 6643.068295 8468.475478 11907.117234 8918.924821 5909.221367 3971.297422 6171.100188 4056.505853 478.201510 478.583535 478.892317 479.145620 18371.864330 18389.291277 18475.550593 18565.140142 9075.876577 6233.035994 16546.287672 11988.713619 5861.916540 14665.168251 17184.985816 4121.074661 5660.977746 18612.063408 13682.319077 10010.627715 9130.377343 1907.396806 2635.046236 9203.140894 12416.377457 14107.019027 20426.528428 2210.459580 11833.852483 9134.809881 13565.340941 16866.211301 14416.279654 21245.491631 11066.261873 25134.262142 4885.353536 10711.428154 12941.081990 5356.750334 5861.153238 6322.015529 10526.733812 4445.372098 9771.001497 9045.636754 6216.510551 7081.454899 409.491693 409.857066 410.152508 410.394825 17932.523254 18008.929437 18316.508759 18589.960314 2198.511885 13898.739620 13973.251956 34825.041647 8749.259271 16579.225853 2902.227130 5356.016533 18673.798704 28194.922856 9556.189144 7961.621290 14169.800754 8358.031420 5222.530371 2996.632690 8519.087146 2168.010938 4922.528631 4909.357942 650.573881 16362.031475 9708.074845 2362.871064 14130.804786 11831.344696 5945.623786 13840.461555 8724.049810 3983.012619 10462.945837 17852.293995 26243.956224 8394.703472 8122.256238 7183.527810 7944.216098 4250.045914 4060.031486 6145.642910 343.651106 343.999638 344.281513 344.512685 17410.834588 17387.526208 17325.464656 17226.068242 15509.115277 6156.427468 6230.982212 13576.700033 15848.968894 8879.075607 5206.661943 17969.276307 23046.673885 26887.351177 25071.949545 15806.907936 2517.474620 12345.490196 13536.444693 6856.520325 21138.963575 24360.782333 10479.043629 2387.488747 3967.223924 16215.389180 9657.056009 3123.836650 11333.936568 21747.075563 17028.823244 15238.843576 24405.835510 32721.544954 25211.370121 6983.092066 13264.297976 12754.303380 23162.480239 10177.774987 2549.741494 9537.071604 2958.162080 5691.756959 280.541336 280.872976 281.141212 281.361193 16878.201326 16793.049543 16602.122712 16382.683814 14108.319550 7300.530202 25367.282985 13904.622703 14522.216914 16090.793884 4406.242691 15918.697391 34853.119644 8046.647983 12746.995360 26160.529944 10805.580793 7741.463920 20700.147074 10867.607407 14913.037741 13317.577459 15265.970996 16272.155153 16499.552489 6623.919463 21717.271407 8240.876151 14839.472293 8559.967179 20341.624614 14489.792797 18951.850339 13575.144955 16103.184296 11253.804832 3067.611747 17697.384031 25117.412451 11382.939244 13042.509513 5134.134756 19877.181503 3029.317391 220.024856 220.339658 220.594290 220.803110 16386.293473 16287.698254 16088.651791 15799.325015 25893.085596 12131.740417 108431.335988 4160.601606 69519.849289 15151.425024 2981.834470 23758.430478 20032.364100 -1746.013172 16492.012600 24424.528116 22474.777658 2671.921067 12928.973848 26291.135122 20888.683427 12568.418290 13568.045640 2463.507407 2913.467233 6976.182774 9083.417977 18271.221387 20192.424593 13992.869925 14461.859827 13479.709791 13072.093138 22526.699452 11856.158500 7499.717276 21629.047643 13762.392771 5103.705199 13950.505982 8153.516716 14155.805803 26711.813585 5157.274000 161.965576 162.263688 162.504829 162.702585 15945.768357 15826.356065 15567.945460 15170.598198 24922.051858 23526.929064 15212.462283 6348.098778 6348.167547 18055.326165 14262.633261 14629.903998 11697.480118 23337.205372 12731.283824 9744.669599 26528.585450 14315.126699 8925.091230 16712.214605 25532.666868 18692.492594 24431.736639 20067.888488 14654.471892 2617.844558 4536.460434 5977.169194 8184.062469 12256.156369 23549.088898 25854.386614 19070.962073 14683.404437 17775.768068 7218.984147 24228.927693 26684.296992 13260.041773 13374.190137 8842.910378 12625.476672 8941.117487 9845.406221 106.229411 106.511065 106.738900 106.925746 15571.675303 15423.152180 15082.932042 14649.587285 52.684838 52.950343 53.165123 53.341264 15279.800891 15154.715892 14876.296079 14525.661633 1.203434 1.453173 1.655206 1.820896 15038.170899 14968.573535 14872.873752 14723.920331 -48.339628 -48.105208 -47.915560 -47.760024 14797.549418 14728.397802 14576.250274 14372.473814 -96.065135 -95.845526 -95.667853 -95.522135 14556.636541 14510.529070 14408.452352 14227.878002 -142.089431 -141.884076 -141.717928 -141.581658 14309.855062 14314.432052 14387.265756 14467.592610 -186.524085 -186.332383 -186.177274 -186.050055 14038.443120 14068.820605 14157.985252 14326.395641 -229.475612 -229.296927 -229.152344 -229.033754 13733.936212 13797.849935 13960.311754 14161.240286 -271.045255 -270.878925 -270.744333 -270.633934 13389.451703 13457.612553 13612.645350 13801.619542 -311.328833 -311.174177 -311.049025 -310.946366 13023.823267 13080.363322 13212.240435 13442.051096 -350.416638 -350.272965 -350.156694 -350.061317 12667.832710 12705.552298 12753.654716 12943.368976 -388.393401 -388.260015 -388.152063 -388.063507 12341.460943 12407.748386 12546.134369 12803.704019 -425.338295 -425.214502 -425.114310 -425.032115 12017.967923 12119.448586 12382.300609 12748.948098 -461.324997 -461.210115 -461.117129 -461.040843 11658.111904 11733.643783 11925.398526 12289.054449 -496.421792 -496.315149 -496.228828 -496.158007 11267.804533 11286.834968 11324.677247 11567.178716 -530.691703 -530.592648 -530.512465 -530.446678 10888.187119 10876.061948 10864.692437 11046.141575 -564.192670 -564.100575 -564.026022 -563.964852 10555.660750 10528.669963 10484.544993 10608.545239 -596.977745 -596.892006 -596.822597 -596.765644 10291.718925 10275.947101 10270.505514 10368.561929 -629.095310 -629.015354 -628.950624 -628.897507 10092.856697 10080.970988 10034.821527 9986.687840 -660.589315 -660.514597 -660.454105 -660.404466 9950.730038 9964.017131 9972.674588 9899.512944 -691.499522 -691.429530 -691.372863 -691.326361 9838.253446 9887.836367 10005.174524 10019.085994 -721.861766 -721.796019 -721.742789 -721.699104 9718.996038 9769.370859 9835.519354 9800.132308 -751.708205 -751.646256 -751.596100 -751.554937 9582.870070 9644.500069 9746.906111 9750.565422 -781.067584 -781.009018 -780.961600 -780.922684 9420.757386 9496.124414 9663.306515 9753.042433 -809.965487 -809.909921 -809.864931 -809.828007 9224.234293 9273.660886 9354.025840 9384.794742 -838.424586 -838.371667 -838.328820 -838.293654 9016.147220 9034.962339 9042.523374 8988.053449 -866.464884 -866.414288 -866.373324 -866.339702 8826.712635 8819.468869 8755.422382 8636.449458 -894.103944 -894.055379 -894.016059 -893.983787 8674.326235 8666.310963 8602.892407 8457.010884 -921.357114 -921.310314 -921.272423 -921.241323 8548.124604 8560.024530 8575.283603 8482.200291 -948.237741 -948.192465 -948.155809 -948.125723 8417.491130 8429.260556 8443.986671 8359.464326 -974.757366 -974.713399 -974.677804 -974.648588 8271.732446 8269.886612 8258.316316 8161.989957 -1000.925922 -1000.883072 -1000.848383 -1000.819911 8121.210353 8104.398419 8053.918667 7917.955289 -1026.751909 -1026.710008 -1026.676088 -1026.648247 7978.646048 7958.231260 7901.485649 7721.290289 -1052.242574 -1052.201473 -1052.168202 -1052.140895 7840.725501 7818.813772 7776.332287 7596.607213 -1077.404065 -1077.363637 -1077.330913 -1077.304054 7693.061862 7655.235368 7585.013779 7404.473405 -1102.241597 -1102.201735 -1102.169470 -1102.142989 7532.931571 7464.346285 7309.676212 7072.433330 -1126.759601 -1126.720216 -1126.688339 -1126.662177 7376.603354 7291.204498 7097.118294 6837.766490 -1150.961869 -1150.922891 -1150.891345 -1150.865456 7235.605132 7158.319284 6996.002705 6776.094310 -1174.851701 -1174.813079 -1174.781822 -1174.756172 7101.712919 7042.604947 6936.298940 6772.987779 -1198.432047 -1198.393747 -1198.362753 -1198.337320 6958.251030 6913.829193 6863.227176 6759.683854 -1221.705648 -1221.667655 -1221.636911 -1221.611685 6798.895409 6730.107697 6575.171670 6405.363659 -1244.675179 -1244.637496 -1244.607004 -1244.581987 6650.024734 6585.548802 6449.698509 6298.375089 -1267.343393 -1267.306040 -1267.275816 -1267.251022 6520.591339 6479.225622 6425.167945 6376.460506 -1289.713266 -1289.676281 -1289.646354 -1289.621806 6402.457717 6368.528996 6299.172231 6241.908654 -1311.788154 -1311.751589 -1311.721995 -1311.697725 6294.524661 6289.478307 6296.388569 6253.927554 -1333.571945 -1333.535860 -1333.506631 -1333.482673 6181.376546 6203.111057 6287.993283 6304.628958 -1355.069234 -1355.033680 -1355.004825 -1354.981195 6049.061579 6069.913993 6137.670577 6181.457360 -1376.285525 -1376.250503 -1376.221941 -1376.198601 5906.436380 5915.732903 5932.275462 5947.516466 -1397.227488 -1397.192855 -1397.164269 -1397.141028 5765.692680 5785.502854 5839.821862 5844.628423 -1417.903361 -1417.868595 -1417.839087 -1417.815364 5613.787885 5643.359980 5726.698842 5720.205038 -1438.323691 -1438.287333 -1438.254580 -1438.228846 5433.946448 5447.572904 5470.751497 5423.382066 -1458.502858 -1458.461182 -1458.419420 -1458.387847 5231.084641 5237.495640 5258.243609 5227.144627 -1478.462509 -1478.406347 -1478.341549 -1478.294751 5010.616075 5003.857844 4987.491057 4939.228128 -1498.239480 -1498.146734 -1498.025031 -1497.940155 4783.500195 4764.926898 4730.579699 4679.619684 -1517.904283 -1517.722612 -1517.462493 -1517.283722 4563.923182 4529.813680 4434.926117 4332.254497 -1537.603683 -1537.212455 -1536.617578 -1536.206801 4364.550796 4343.581345 4281.956641 4154.745544 -1557.652193 -1556.794352 -1555.385562 -1554.392855 4169.945058 4169.935954 4198.027979 4120.751238 -1578.727694 -1576.939735 -1573.503642 -1571.016642 3953.275987 3937.991886 3917.460837 3786.502967 -1604.207909 -1599.557960 -1590.174897 -1583.953273 3716.961017 3663.501660 3536.050703 3365.047884 -1651.098801 -1628.811083 -1601.492386 -1588.355458 3485.260637 3432.647816 3336.542460 3156.679602 -1692.988952 -1640.726820 -1594.235497 -1576.776109 3259.589547 3193.981632 3085.393978 2918.820156 -1654.516159 -1598.096024 -1559.598852 -1544.577113 3056.832869 2957.762336 2775.222244 2611.489156 -1542.997357 -1522.158460 -1503.442994 -1493.983605 2919.293789 2793.051081 2516.392005 2318.646480 -1451.078559 -1444.332208 -1435.918234 -1431.098375 2876.442098 2777.572944 2585.944883 2435.261821 -1369.862909 -1367.245485 -1363.654712 -1361.421454 2896.406793 2818.644089 2664.099709 2514.203213 -1291.900709 -1290.823385 -1289.290848 -1288.297529 2922.697477 2831.004592 2612.486993 2400.024611 -1214.967291 -1214.498540 -1213.834697 -1213.393576 2911.428352 2777.837508 2423.302301 2112.192314 -1138.189611 -1137.970151 -1137.671923 -1137.469262 2858.438217 2719.963829 2366.044554 2060.638940 -1061.218193 -1061.103045 -1060.959260 -1060.858602 2781.820230 2690.881281 2491.927964 2318.012557 -983.913759 -983.843656 -983.766279 -983.709842 2690.240327 2647.781810 2576.758022 2529.903747 -906.225251 -906.176503 -906.129865 -906.094101 2585.942564 2566.601991 2543.459679 2554.828649 -828.139685 -828.104376 -828.076277 -828.053153 2478.510806 2469.770514 2461.341955 2496.711712 -749.660097 -749.639264 -749.630874 -749.621232 2378.849260 2377.967063 2377.815904 2412.576937 -670.793098 -670.797168 -670.823654 -670.837609 2293.040515 2302.701832 2325.986997 2370.995668 -591.535772 -591.592696 -591.695108 -591.759759 2220.005541 2234.033796 2258.894050 2310.376567 -511.850965 -512.029206 -512.307194 -512.487325 2158.033406 2175.660090 2209.382365 2265.050651 -431.609470 -432.077609 -432.769152 -433.214753 2100.636964 2110.235376 2109.837553 2121.538394 -350.444426 -351.633466 -353.303699 -354.348084 2040.058169 2038.593995 2011.345223 1988.171886 -267.355423 -270.459257 -274.427241 -276.746511 1969.228046 1956.863464 1908.639365 1881.232511 -179.480523 -188.329077 -197.450414 -202.131652 1893.118622 1877.694922 1819.228189 1796.465917 -77.304787 -107.578783 -125.449167 -133.483831 1825.709978 1826.469230 1824.573176 1845.146901 1905.344078 1986.433538 1929.292663 1850.562458 1830.276337 1833.028685 1847.965874 1868.072719 1889.087048 1908.494901 1924.915828 1937.680039 1946.535671 1951.452488 1952.498078 1949.766654 1943.343803 1933.293830 1919.659852 1902.469878 1881.744726 1857.505476 1829.779424 1798.604258 1764.030594 1726.123139 1684.960832 1640.636248 1593.254515 1542.931934 1489.794441 1433.975994 1375.616979 1314.862647 1251.861645 1186.764627 1119.722977 1050.887606 980.407810 908.430062 835.096509 760.542586 684.892357 608.248232 530.666948 452.101383 372.253870 290.178554 203.052485 101.384852 12.205322 -37.254359 -63.652618 -74.786378 1771.636010 1781.081574 1799.099950 1832.758024 1863.947793 1876.009948 1859.372742 1835.560472 1826.071028 1832.153864 1847.767486 1867.785445 1888.566429 1907.785637 1924.097290 1936.816899 1945.668107 1950.599967 1951.666337 1948.954000 1942.545631 1932.505372 1918.877554 1901.691874 1880.970791 1856.736723 1829.017927 1797.852692 1763.291931 1725.400418 1684.256990 1639.954009 1592.596321 1542.299907 1489.190365 1433.401317 1375.072817 1314.349807 1251.380648 1186.315740 1119.306258 1050.502986 980.055239 908.109835 834.810000 760.293967 684.692679 608.125239 530.689056 452.438295 373.340515 293.218910 211.898997 131.768900 61.920252 12.511463 -16.950652 -29.719660 1735.195485 1746.916283 1766.085505 1790.299544 1811.768759 1821.840955 1821.057214 1817.278012 1819.402121 1830.004651 1847.075573 1867.383583 1888.094764 1907.186911 1923.406165 1936.080372 1944.920930 1949.861357 1950.943591 1948.247272 1941.851813 1931.820667 1918.198881 1901.017447 1880.300188 1856.070692 1828.358087 1797.201232 1762.651345 1724.773293 1683.645858 1639.361236 1592.024046 1541.749998 1488.664404 1432.900594 1374.598341 1313.902319 1250.960641 1185.923497 1118.941904 1050.166588 979.747017 907.830628 834.562354 760.084686 684.538872 608.068694 530.830402 453.018070 374.929766 297.148241 221.042274 149.736164 88.489227 42.195963 12.749608 -0.451232 1719.986835 1732.429613 1750.504011 1771.459654 1789.729586 1801.073406 1806.046810 1809.476270 1816.515006 1829.326705 1847.021745 1867.305576 1887.816962 1906.720485 1922.813519 1935.421671 1944.238503 1949.179421 1950.272890 1947.590263 1941.206814 1931.184643 1917.569048 1900.392017 1879.678560 1855.453346 1827.746348 1796.597000 1762.056846 1724.190884 1683.077869 1638.809873 1591.491312 1541.237660 1488.173967 1432.433297 1374.155160 1313.483981 1250.567639 1185.556120 1118.600276 1049.850742 979.457040 907.566977 834.326583 759.881145 684.378699 607.979176 530.876622 453.351227 375.886167 299.409290 225.701249 157.787123 99.673373 55.040239 26.041303 12.843673
</DataArray>
<DataArray type="Float64" Name="Velocity" NumberOfComponents="3" format="ascii">