<VTKFile type="PolyData">
<PolyData>
<Piece NumberOfPoints="2064" NumberOfVerts="2064" NumberOfLines="0" NumberOfStrips="0" NumberOfPolys="0">
<PointData>
<DataArray type="Float64" Name="Pressure" format="ascii">
 13103.354449 13087.843669 13061.397674 13025.826386 12982.095332 12924.685192 12844.593135 12738.920049 12610.904898 12465.326967 12306.139049 12139.877676 11975.283896 11817.243732 11665.482497 11517.366049 11369.533376 11218.781763 11062.981172 10901.184192 10733.191474 10559.177682 10379.494718 10194.579581 10004.909593 9810.978821 9613.284405 9412.317868 9208.559215 9002.472769 8794.504236 8585.078681 8374.599244 8163.446445 7951.977975 7740.528869 7529.411988 7318.918726 7109.319877 6900.866636 6693.791667 6488.310267 6284.621671 6082.910685 5883.350125 5686.105231 5491.342828 5299.251774 5110.089845 4924.291150 4742.705061 4567.087458 4400.923293 4250.194400 4122.788167 4025.808097 3963.215729 3934.950466 13086.449052 13070.982734 13043.090626 13007.198386 12969.982364 12922.839765 12846.179783 12739.143075 12609.754695 12464.154189 12301.098592 12127.992116 11960.687059 11804.124001 11654.795310 11509.461947 11364.416805 11215.540437 11060.696568 10899.354333 10731.603310 10557.746127 10378.187264 10193.384280 10003.821939 9809.996537 9612.405469 9411.539853 9207.879139 9001.887142 8794.009164 8584.669987 8374.272579 8163.197386 7951.802102 7740.421832 7529.369551 7318.936801 7109.394541 6900.994125 6693.968334 6488.532476 6284.885532 6083.211431 5883.680643 5686.452597 5491.680131 5299.518943 5110.149383 4923.829523 4741.031412 4562.811259 4391.833823 4234.333059 4100.792992 4000.728458 3937.453026 3909.275547 13061.120793 13044.886981 13012.638396 12974.720063 12958.135703 12939.209204 12862.010813 12746.380866 12611.410939 12469.935980 12294.888849 12098.052986 11926.345423 11777.410554 11633.324491 11494.120149 11356.381555 11211.594254 11058.271673 10897.584310 10730.146858 10556.467412 10377.032844 10192.333550 10002.866917 9809.133692 9611.632511 9410.854538 9207.278888 9001.368982 8793.569780 8584.305811 8373.979882 8162.972360 7951.640933 7740.320753 7529.324887 7318.944995 7109.452165 6901.097863 6694.114922 6488.718538 6285.107189 6083.463370 5883.953921 5686.729419 5491.921466 5299.635094 5109.930100 4922.778361 4737.976871 4555.033475 4373.483210 4198.194227 4047.702199 3942.045122 3879.284864 3852.227951 13030.373337 13015.965067 12985.283075 12954.981750 12971.369955 12983.121255 12899.450776 12780.101189 12612.457470 12465.058564 12261.123304 12030.898268 11871.954212 11744.870717 11607.678772 11479.259058 11351.611551 11208.635244 11056.286465 10896.045321 10728.833670 10555.291487 10375.960143 10191.351571 10001.971159 9808.322221 9610.903868 9410.207004 9206.710292 9000.876710 8793.150858 8583.957000 8373.697772 8162.753451 7951.481704 7740.217719 7529.274640 7318.944231 7109.497700 6901.186628 6694.243924 6488.884753 6285.307299 6083.693147 5884.206750 5686.992809 5492.168702 5299.805171 5109.878665 4922.153733 4735.884570 4549.003910 4355.605836 4136.212369 3947.586639 3843.504990 3787.903505 3764.543820 12995.631216 12989.683277 12982.546020 12977.977119 9112.966202 12975.174809 8418.855692 10287.356585 9389.172567 11239.774972 7436.455445 11248.817872 9352.201022 7044.698609 8661.077202 9571.365838 12126.219164 8276.810449 9105.623081 7469.917750 9241.508520 9394.098795 11171.498972 8396.229872 8489.462532 10041.356688 8073.906818 9137.858563 8434.318606 8362.104203 12602.168242 7600.598467 8195.123207 12185.639364 11474.286816 9440.615235 7771.388409 9696.537427 9976.747656 7987.297893 6160.918750 10464.302941 8291.818030 10758.118422 3767.531000 3704.933206 3667.734729 3651.075348 12951.609371 12955.557939 12975.907470 13003.788623 8501.086468 8233.191130 7509.579983 7252.233448 8103.965851 8425.330825 7514.948322 11167.207220 13016.546012 7872.029045 10132.459850 12933.085661 8256.272382 11439.755617 7809.487052 7983.538719 11376.003878 9407.836533 10767.902712 11940.812109 7888.880160 9334.283656 9170.840833 9117.121382 7937.089367 8388.181311 7523.131977 8584.192934 8258.972943 10814.585483 9063.393562 12863.694850 8509.742162 12812.473597 11215.688160 8634.232994 9455.072204 8421.959404 8407.088655 10281.652518 3566.078020 3548.056505 3529.313836 3519.762397 12890.384460 12899.204203 12933.496529 12990.503957 10539.510630 7366.800207 7242.120060 7057.851324 7133.153247 7808.419605 11042.933351 7963.693690 8327.458599 8504.149439 7419.174996 7870.478365 7758.562248 11840.401627 7620.400648 7737.222005 7247.976318 7873.386397 8062.100007 7999.873875 8468.522344 10262.080688 8277.768645 12159.560802 7405.304413 8462.274592 8017.344783 7673.327384 11933.681421 12583.050865 8120.759232 9337.795471 7856.857429 9246.613860 13502.887404 9204.930460 12239.120423 8357.005124 9338.692306 9545.885389 3397.674958 3391.585496 3383.615671 3379.020105 12808.553103 12817.918731 12848.026034 12885.839999 9100.984442 7951.601116 7488.616307 8333.215599 8538.673154 7227.425107 8201.690884 8124.866268 7898.040473 11439.757838 7188.535680 12224.539271 7409.722297 8744.010374 7477.424769 11512.932472 10567.509869 7413.633652 7354.652276 12165.010960 7797.629196 7548.753118 10891.272793 8125.272514 12998.291223 7213.465814 7720.739096 11624.406261 9544.213239 12697.811030 10611.884048 8374.561049 12493.134133 8181.010471 12984.259236 10899.508363 9004.504733 8001.955853 12449.832908 9167.187298 3242.286580 3240.170219 3236.984247 3235.046535 12708.616030 12715.240938 12735.041243 12747.330572 6575.078653 7772.304119 8793.470020 10189.141852 8086.386650 9539.330451 11249.878426 7049.040558 10457.085000 7704.879135 7225.695968 8820.285514 7431.280747 7059.327423 7689.212913 12978.672296 11454.512860 9642.498936 7558.462030 11129.656956 9081.149341 7635.884368 6995.614156 11847.856447 7673.916021 8178.062711 10506.417514 7551.679892 9100.395278 9321.015694 8184.194044 8985.134001 11053.087500 11418.885337 9129.214874 8383.315955 7440.420933 6052.257103 7457.368456 11585.794245 3093.838362 3093.210764 3092.053713 3091.356973 12597.916331 12597.799232 12591.048191 12570.853818 7735.131366 10451.813522 8526.035826 13952.959151 8366.232212 9677.402854 8005.656979 6441.490851 11863.498286 9528.694008 10248.852019 10824.631543 7356.687472 7970.495704 5054.649796 17154.043358 6200.050605 10950.624030 7202.377843 12505.153644 7468.360140 11217.895073 12030.861993 11029.161467 7499.623320 7483.800397 8577.430091 7566.855279 7435.642833 10538.845822 12580.008002 12442.248880 7708.459261 9210.751199 9289.790163 8344.494962 7637.442440 7275.408936 7247.549628 8523.592486 2950.143502 2950.108371 2949.802689 2949.651388 12486.488866 12488.042699 12491.595816 12492.448087 10697.955215 6372.709463 13036.534432 10784.825885 7172.427899 7380.308171 7075.891004 8602.401917 7664.322720 12484.178305 8261.583336 10216.038853 7382.868645 6297.492764 10958.326102 18972.249927 10193.323086 5970.401808 6597.864390 8491.779443 7901.516044 13480.351458 7497.655895 11231.929605 9218.722101 11295.670033 7603.419940 11883.514767 7456.836588 8349.625043 12345.575760 11526.940193 7007.284245 7573.007995 7437.481304 7083.379884 12240.623275 8610.515760 11787.000670 11393.421073 2810.343652 2810.550840 2810.601490 2810.683457 12377.162958 12378.493847 12377.331392 12378.833103 12304.519222 10517.825359 11913.255775 7601.667179 12463.477710 16713.652331 7637.748583 10926.298604 9476.445469 6989.197648 14537.784897 -9183.572737 8132.754860 6893.317873 10208.130370 10963.279596 7423.761533 9390.670290 12604.573857 10758.364251 6836.244779 14373.076594 17143.168938 7567.110146 7308.232733 10988.404653 15154.050337 11695.033082 9632.249480 10795.482759 8613.844866 9518.712182 7937.444499 9349.958522 10299.423624 9710.298146 7045.086072 8244.351637 10812.734809 8442.895664 2674.081692 2674.388939 2674.588405 2674.768725 12269.080268 12267.099065 12234.054679 12189.660588 10428.781848 9486.138297 7865.889048 14756.714675 13767.425306 12172.549996 17234.408043 13281.130237 13424.980771 7091.875305 3782.869607 9353.657522 7314.953311 10909.659746 10118.490867 6335.694172 11232.000598 10560.056053 7586.710071 7012.581854 8165.083989 8933.451634 6811.940669 11152.477171 8086.852915 11654.288997 9128.440128 7513.060041 7979.625874 7443.580768 11097.633072 8202.163755 6568.957351 7848.864702 12982.030971 11824.647441 7205.490393 7369.513999 7667.007245 9634.610672 2541.198107 2541.546382 2541.807571 2542.028787 12157.898558 12171.439215 12180.085605 12185.511322 15377.397363 9737.485244 6986.387202 8081.651441 10920.578883 9834.153247 7439.740075 11389.253855 14458.402068 11284.273256 7709.279794 11507.119511 10685.076073 16669.435367 13138.159751 10245.934868 9364.408658 7455.875264 10453.476031 10585.973552 10745.855553 -9101.919177 5960.562364 7704.227381 9955.710036 6817.690503 11972.524794 7070.542178 7729.860234 7387.548640 7403.690406 8674.821216 9221.103824 7339.995493 7833.255385 12383.026140 6502.940344 9590.929947 8588.273937 7462.527143 2411.611612 2411.976019 2412.262217 2412.499909 12025.661519 12066.781958 12164.983263 12262.264427 7200.750272 13128.370004 11338.404609 6270.623908 6240.164499 7027.569237 7615.697742 10227.078176 11009.678923 6167.846904 6985.930373 8303.837049 9888.090163 10809.064690 10321.516276 10937.826912 12749.862756 7559.723434 10736.810601 9762.985325 12900.624404 14313.995661 12868.398809 6710.076358 7385.369146 16317.126162 12472.574903 7839.641796 11709.573777 8938.196023 8851.458007 9965.936631 6506.396178 8686.207786 7062.899050 7365.522732 7341.839212 8337.364266 8061.757107 8675.817068 2285.270764 2285.640568 2285.936138 2286.179834 11848.704516 11895.820239 12007.335126 12110.839545 7526.460989 16743.631320 6098.763678 7854.984465 12941.578711 12019.514528 7468.788876 7117.967834 7139.498296 6289.051407 12735.404458 11330.821331 15677.083743 7004.363379 8322.113105 6769.072680 10411.256698 7572.715984 7287.106897 15181.898580 7368.035843 16944.976078 12801.296924 14980.367722 8773.775244 11047.165038 9503.199522 7427.687554 9332.935438 12451.882324 11869.615692 10904.066108 8824.111285 9298.865090 10956.472760 6958.109727 10561.447326 7098.594268 -2998.880137 7718.807412 2162.134131 2162.504516 2162.802649 2163.047743 11622.677288 11655.383917 11726.860673 11803.412106 5592.086989 6783.254750 7455.253087 8367.277468 10291.769859 9707.250615 17017.499059 3681.639017 10995.128184 7155.577572 6786.490640 11476.540522 7136.420191 7107.722157 8019.090684 6526.054995 7530.729299 7596.759775 6805.535002 7741.620837 7758.110333 7436.888830 7711.424745 9271.000490 7208.951406 10905.878715 9142.352062 9981.418274 7224.431540 15597.795243 14998.889734 6306.662729 8095.003010 7727.949858 6177.769253 7008.500863 8403.080536 9517.592393 7544.695561 7664.604968 2042.162207 2042.530844 2042.828439 2043.072794 11363.651915 11378.804271 11403.355625 11424.503653 14643.689515 18191.632336 6997.207159 7429.006958 6541.442008 10209.457861 8809.455829 7244.768259 8431.318594 20510.157143 7453.275199 5571.905335 7303.179564 6067.263386 8083.269856 7062.851666 7961.673441 6594.567959 10833.832906 14576.285436 -5988.247321 9416.897923 9918.498539 7415.908375 7598.592445 11064.425329 8692.844767 8331.639838 11491.355779 8080.826198 9122.931373 6543.243194 6772.715286 11391.886841 8113.901904 18419.741564 11069.963001 10411.381994 9597.353688 9001.729889 1925.314190 1925.679810 1925.975328 1926.217854 11091.266624 11097.734753 11106.809683 11097.917412 8420.879643 7182.358901 7943.255659 19317.526054 11022.678039 8161.283386 9814.632030 17516.169596 7738.686440 12864.143800 7575.660524 7533.550952 7115.218747 15246.820078 16661.151885 6731.029388 7654.023779 7639.920314 7664.593079 16186.008832 7385.548424 7280.115486 7696.579633 9545.604104 8313.478846 11391.881703 7325.386110 7853.251741 10904.533368 7352.365898 7672.438754 9326.426409 18235.662755 11467.703056 5515.555682 11019.008552 7063.218254 7290.588279 7458.103712 7310.237958 1811.546786 1811.908579 1812.201153 1812.441211 10815.872687 10817.309244 10828.191062 10816.943593 13352.988231 8052.560066 7572.682815 8189.907471 6099.912545 11942.137667 13320.361776 11210.502981 12249.478003 10634.389151 6742.410880 -7453.250089 6434.655736 -4008.756653 11056.243292 10856.351802 7186.523530 -6234.606820 9168.452622 -9458.945882 6209.946416 8099.306660 6880.290652 16997.371293 7439.058790 8830.840089 8904.446778 7616.327009 7013.488725 11904.547174 7699.433246 11329.106434 12228.862882 7604.384139 7668.327719 7565.446794 6923.260003 20015.754899 10931.252737 8794.489081 1700.813856 1701.171224 1701.460282 1701.697431 10544.176285 10529.037594 10492.687908 10434.645335 7602.877860 8267.942898 7640.906845 8184.753303 7459.965779 7381.733945 9829.409799 9462.238153 11615.756174 12563.731151 11129.402524 6541.395672 10074.712315 7490.815680 7694.459534 6695.352857 12331.570582 10808.052590 6884.514339 16043.384990 10986.853983 8963.613434 5452.404116 12946.692574 10103.299165 10473.208854 13118.266706 5921.728298 10849.434388 6775.948841 12214.526980 6970.943233 7385.063136 8230.048379 5990.488801 7715.473456 11047.733722 6300.609366 8537.304516 18731.767117 1593.066408 1593.418860 1593.703967 1593.937863 10290.749192 10258.773891 10170.794302 10069.602771 7459.394263 7493.408998 11416.510363 7817.354362 8891.371886 11312.443107 -13768.255102 8418.271646 7793.238216 7772.537377 7596.585082 9052.574847 6545.447993 6901.899543 9122.773298 8892.459558 7624.026888 8245.072603 8445.798486 5586.695307 -11827.926106 8116.215130 12240.828842 7684.482061 7449.555507 7278.414236 9687.362881 8637.957859 12723.744747 8297.739714 11116.127361 8393.114493 15388.647218 8574.098694 10725.514752 7707.866516 7281.661704 11133.008021 12840.522060 11086.572646 1488.252737 1488.599843 1488.880636 1489.110987 10068.020627 10039.659816 9970.157984 9871.910755 8642.297310 7126.918553 8290.388744 -5987.459199 6687.105351 8354.690493 15935.406329 10362.434973 7819.082791 -6185.787366 8229.777205 11139.367073 9647.136817 18179.819621 6389.409578 6575.228447 8747.435629 7739.652175 7779.584261 13344.933519 12784.437687 -11820.728778 7621.750570 9229.162566 9700.697374 7388.915630 8263.768548 7561.231335 8128.990557 11669.970802 9134.330108 6406.688273 12117.965078 7445.258597 16422.344315 6575.564396 6659.785934 7707.039071 12511.399501 10327.258871 1386.318609 1386.659983 1386.936143 1387.162689 9870.732842 9851.749124 9816.436520 9747.060531 8586.298313 12336.367288 7556.060995 7768.644280 7160.755751 9268.692536 8077.435476 8906.760558 8648.424679 9830.686224 7647.094715 7493.257977 12256.533567 7471.188678 7661.608127 8192.205546 12223.474430 11992.172997 12184.002774 10213.400549 8074.154808 17352.428634 9837.822887 8699.924030 7471.428958 7754.483137 12869.718107 12568.002483 10818.277599 7797.093628 9436.277105 6561.601677 9964.580571 12967.302133 9116.716804 8252.816575 6829.335735 8284.523283 6896.670326 7413.022698 1287.207472 1287.542763 1287.814003 1288.036509 9688.874213 9667.034609 9617.208373 9542.774421 1190.860667 1191.189552 1191.455611 1191.673864 9523.482906 9495.531919 9425.454982 9340.349616 1097.217624 1097.539811 1097.800449 1098.014255 9380.224168 9357.068832 9312.087936 9266.912636 1006.216062 1006.531282 1006.786284 1006.995464 9257.321541 9234.541235 9177.871252 9131.335155 917.792168 918.100178 918.349346 918.553737 9151.271041 9147.409107 9156.259008 9166.653750 831.880768 832.181345 832.424501 832.623957 9047.400657 9045.372199 9059.451924 9076.379084 748.415481 748.708426 748.945406 749.139795 8945.299062 8926.038862 8892.708766 8877.482725 667.328864 667.613996 667.844653 668.033853 8860.443719 8828.403265 8744.459682 8655.192445 588.552539 588.829691 589.053892 589.237793 8801.350932 8778.832888 8716.498117 8612.846699 512.017299 512.286322 512.503945 512.682448 8755.395457 8753.085207 8754.744267 8704.086104 437.653209 437.913965 438.124899 438.297912 8702.075936 8706.714428 8730.093095 8711.912801 365.389676 365.642038 365.846179 366.013618 8635.802283 8631.704647 8608.273410 8553.013250 295.155514 295.399362 295.596614 295.758398 8566.820638 8576.338621 8582.242115 8527.315645 226.878975 227.114196 227.304465 227.460519 8490.108966 8524.220666 8632.092258 8695.434374 160.487777 160.714258 160.897454 161.047702 8397.434904 8428.440085 8506.927653 8565.073290 95.909090 96.126719 96.302750 96.447117 8305.779717 8318.732940 8325.058927 8330.215455 33.069518 33.278179 33.446951 33.585360 8244.949969 8259.033343 8292.371887 8364.321987 -28.104956 -27.905387 -27.743973 -27.611605 8229.554188 8252.383254 8288.651298 8343.139564 -87.689047 -87.498702 -87.344756 -87.218519 8257.992835 8293.270125 8351.396321 8389.079132 -145.758274 -145.577302 -145.430944 -145.310937 8313.260523 8356.273467 8415.806380 8441.160344 -202.389097 -202.217666 -202.079033 -201.965368 8373.249593 8423.567547 8453.740638 8399.739063 -257.659089 -257.497390 -257.366637 -257.259443 8415.044842 8494.379582 8633.344247 8628.890322 -311.647146 -311.495399 -311.372705 -311.272130 8414.724017 8491.074194 8609.936640 8596.138694 -364.433735 -364.292195 -364.177768 -364.083982 8374.773080 8462.041261 8620.503394 8579.350744 -416.101192 -415.970154 -415.864234 -415.777437 8296.693892 8368.252450 8512.084032 8480.430486 -466.734067 -466.613877 -466.516745 -466.437167 8205.052109 8240.409229 8274.421562 8198.265745 -516.419534 -516.310594 -516.222575 -516.150485 8134.011740 8169.039701 8219.883520 8177.496104 -565.247858 -565.150634 -565.072110 -565.007822 8086.151931 8125.534123 8168.364786 8127.219827 -613.312941 -613.227977 -613.159389 -613.103266 8050.853408 8111.130651 8192.492000 8145.562122 -660.712947 -660.640875 -660.582736 -660.535203 8003.986478 8088.195990 8276.985485 8324.628277 -707.551027 -707.492581 -707.445488 -707.407036 7925.777325 7980.221485 8085.026957 8122.200694 -753.936148 -753.892179 -753.856822 -753.828021 7835.998531 7862.746831 7890.761327 7868.379138 -799.984044 -799.955535 -799.932716 -799.914225 7751.639139 7764.735019 7768.890494 7731.575550 -845.818305 -845.806396 -845.797040 -845.789622 7678.265797 7696.191798 7716.033570 7682.486124 -891.571627 -891.577633 -891.582807 -891.587342 7608.005798 7623.166815 7646.036763 7653.006355 -937.387230 -937.412665 -937.433601 -937.451104 7540.761756 7560.490850 7616.821463 7657.142624 -983.420473 -983.467083 -983.505197 -983.536835 7478.819154 7480.675275 7471.272764 7453.243379 -1029.840689 -1029.910473 -1029.967391 -1030.014503 7437.350786 7427.859384 7403.661491 7407.848904 -1076.833237 -1076.928487 -1077.006069 -1077.070186 7420.044756 7417.289392 7410.840627 7430.505569 -1124.601808 -1124.725138 -1124.825501 -1124.908368 7409.853681 7420.926664 7466.274521 7499.365051 -1173.370969 -1173.525341 -1173.650887 -1173.754483 7385.501474 7371.482410 7353.854481 7352.206013 -1223.388930 -1223.577684 -1223.731113 -1223.857661 7362.481299 7318.227005 7202.688283 7097.251584 -1274.930516 -1275.157378 -1275.341688 -1275.493660 7362.830106 7320.582868 7230.663674 7138.066313 -1328.300248 -1328.569313 -1328.787764 -1328.967859 7386.776610 7363.841417 7343.250864 7316.788270 -1383.835436 -1384.151088 -1384.407099 -1384.618165 7423.988812 7399.857825 7360.237071 7334.770983 -1441.909107 -1442.275818 -1442.572695 -1442.817542 7478.534543 7453.393717 7369.033229 7274.973707 -1502.932541 -1503.354410 -1503.694719 -1503.975686 7548.316315 7563.084052 7612.935736 7594.102886 -1567.357200 -1567.836910 -1568.221046 -1568.539020 7602.728197 7630.549423 7723.864027 7759.597312 -1635.675964 -1636.212449 -1636.635349 -1636.987529 7633.726107 7634.739147 7639.621596 7623.013551 -1708.424192 -1709.007342 -1709.450890 -1709.825676 7665.694643 7649.657456 7609.630619 7531.664717 -1786.182859 -1786.781348 -1787.196717 -1787.561913 7717.342689 7694.353420 7633.478715 7506.112280 -1869.590606 -1870.123553 -1870.389988 -1870.665523 7793.944394 7761.801568 7676.942280 7557.499100 -1959.383215 -1959.653339 -1959.481616 -1959.476711 7896.447317 7890.594756 7924.087027 7882.319534 -2056.508501 -2056.041162 -2054.747410 -2054.018073 8009.910976 7973.500488 7899.922224 7803.318040 -2162.441034 -2160.081766 -2156.058763 -2153.597423 8162.300508 8100.340430 7939.125062 7785.259232 -2280.032162 -2272.867442 -2262.360243 -2255.986553 8378.097304 8334.609247 8246.872487 8159.321241 -2415.964388 -2395.941391 -2370.365306 -2355.849803 8645.854883 8638.508029 8655.580231 8612.199778 -2587.621460 -2530.200808 -2470.979344 -2442.437136 8941.612880 8936.153097 8892.155437 8787.608271 -2815.265151 -2652.555062 -2543.037391 -2498.686215 9261.666735 9297.875124 9400.460763 9379.998805 -2985.158411 -2684.126633 -2557.011675 -2506.885395 9584.100912 9619.456943 9695.702983 9619.442208 -2779.694176 -2595.556201 -2501.214644 -2460.755962 9917.418230 9932.269752 9912.007012 9750.041762 -2491.017261 -2444.541053 -2394.969885 -2370.365129 10276.353216 10305.291618 10342.508501 10309.742521 -2303.534135 -2287.069801 -2265.784712 -2253.547452 10642.246875 10708.476383 10905.292723 11023.736160 -2145.429668 -2139.506308 -2130.777917 -2125.455363 10980.431004 10983.975972 10971.790146 10932.121175 -2002.465003 -2000.521357 -1997.190019 -1995.150575 11320.684881 11256.828091 11081.226714 10896.862718 -1869.051525 -1868.692756 -1867.640055 -1867.052324 11688.772952 11586.101772 11340.922728 11047.947375 -1742.830834 -1743.100212 -1742.991629 -1743.015355 12076.973457 11963.474366 11668.204321 11215.399075 -1622.616439 -1623.116899 -1623.382683 -1623.647333 12449.447468 12367.216290 12179.545529 11690.012829 -1507.670015 -1508.233923 -1508.631184 -1508.976277 12752.047313 12652.017410 12382.075535 11811.474721 -1397.427009 -1397.983690 -1398.409596 -1398.766653 12972.267791 12836.063887 12478.894003 11954.885160 -1291.392946 -1291.913750 -1292.326191 -1292.667101 13124.704767 12970.380880 12608.135925 12305.096365 -1189.105184 -1189.580712 -1189.965259 -1190.280453 13229.597170 13089.745560 12780.519840 12595.598378 -1090.118354 -1090.550044 -1090.907907 -1091.198314 13309.557172 13225.454095 13078.902596 12954.105126 -993.995668 -994.395581 -994.743594 -995.020555 13376.972219 13318.348811 13171.930775 12936.937565 -900.296213 -900.695405 -901.078511 -901.371835 13456.773364 13425.906905 13305.137948 13030.462490 -808.547075 -809.020340 -809.547028 -809.927401 13555.830493 13566.360398 13539.776054 13421.485541 -718.177164 -718.908097 -719.837673 -720.468720 13654.265633 13715.801114 13833.899230 14003.091730 -628.352507 -629.811855 -631.762514 -633.009205 13725.037595 13821.065682 14040.623599 14476.152534 -537.532438 -541.030360 -545.452373 -548.059161 13763.922461 13858.121434 14031.240605 14510.033188 -442.099779 -451.857081 -461.909033 -467.082783 13795.071992 13922.077813 14203.002786 14822.318639 -331.013638 -364.379749 -384.094201 -392.957280 13811.365611 13960.622028 14314.019063 14958.487465 15703.183216 16415.026933 16458.811620 16535.449799 17178.760078 17914.500429 18119.122990 18229.456928 16583.933454 14521.740999 13045.549751 12086.784389 10813.942857 9376.015178 9612.034957 9496.874297 9071.942314 8882.601524 8303.183477 7684.677466 7185.726980 6639.674586 6108.428085 5603.277091 5126.617912 4679.411399 4261.719601 3873.099528 3512.749367 3179.577495 2872.255485 2589.272868 2328.994162 2089.713836 1869.705030 1667.259559 1480.718487 1308.493816 1149.082487 1001.074087 863.153459 734.098852 612.775119 498.119082 389.108782 284.694644 183.633200 84.044578 -17.949401 -133.494539 -233.186083 -288.148799 -317.416065 -329.732513 13801.784976 13940.170709 14237.076158 14714.849154 15189.092645 15524.578771 15688.966041 15816.494467 16113.423027 16524.222212 16511.613033 16091.901596 15201.709281 14119.486231 13113.318635 12242.919619 11405.285320 10696.297592 10257.810834 9870.633692 9413.392240 8914.854823 8352.877459 7764.470217 7195.545150 6644.908101 6113.900742 5608.808658 5132.263460 4685.123288 4267.426141 3878.725846 3518.225087 3184.840984 2877.256630 2593.974385 2333.371511 2093.754056 1873.404931 1670.623684 1483.757149 1311.221404 1151.516150 1003.232923 865.058418 735.773927 614.251240 499.444315 390.373943 286.098776 185.661892 88.021078 -7.794957 -99.863608 -178.829946 -234.199968 -267.046507 -281.227695 13781.157770 13897.327684 14123.780021 14434.377910 14754.206164 15007.090769 15187.385968 15337.491748 15493.568233 15592.219829 15502.557087 15153.707298 14558.185505 13826.176478 13078.304862 12366.970466 11698.295081 11097.564194 10576.994003 10074.277307 9542.031685 8976.869932 8386.165391 7790.721797 7210.316512 6652.198973 6119.238558 5613.746222 5137.169951 4690.056093 4272.352525 3883.589605 3522.967561 3189.408913 2881.605758 2598.071052 2337.192861 2097.287236 1876.645687 1673.574689 1486.426356 1313.620603 1153.659892 1005.137975 866.744123 737.264336 615.581166 500.674495 391.627734 287.649998 188.142449 92.890417 2.609562 -79.990183 -149.789144 -201.995847 -234.982716 -249.696531 13773.996134 13879.693077 14071.317976 14323.391390 14584.311580 14808.370322 14982.166327 15118.588931 15220.384510 15245.050692 15120.780886 14803.885336 14308.383420 13699.811540 13052.605865 12413.317324 11801.864102 11228.094588 10685.457982 10145.506276 9584.369920 8998.769794 8398.900665 7800.523824 7217.491925 6657.439411 6123.744797 5618.156258 5141.646143 4694.593231 4276.900812 3888.091051 3527.366268 3193.654905 2885.657193 2601.895495 2340.767602 2100.598762 1879.688539 1676.350027 1488.940463 1315.883533 1155.684396 1006.938839 868.338165 738.671638 616.828935 501.806851 392.728929 288.896781 189.911952 95.935076 8.129677 -70.908022 -137.430979 -187.956093 -220.543982 -235.289327
</DataArray>
<DataArray type="Float64" Name="Velocity" NumberOfComponents="3" format="ascii">