<VTKFile type="PolyData">
<PolyData>
<Piece NumberOfPoints="2064" NumberOfVerts="2064" NumberOfLines="0" NumberOfStrips="0" NumberOfPolys="0">
<PointData>
<DataArray type="Float64" Name="Pressure" format="ascii">
 21747.726150 21730.449603 21705.665408 21678.036584 21676.356600 21749.626579 21910.701492 22028.135267 21864.728517 21288.957255 20352.038749 19212.131543 18073.527219 17081.627598 16249.010577 15516.250166 14800.597794 14046.422849 13271.884856 12500.301629 11715.669713 10947.755963 10263.645701 9682.398310 9168.812380 8686.560325 8221.518675 7770.516013 7330.939096 6905.126602 6497.647404 6110.673743 5743.953597 5396.083403 5065.370842 4750.265148 4449.536982 4162.315566 3888.054135 3626.469212 3377.480609 3141.165889 2917.734180 2707.518271 2510.979753 2328.718459 2161.474122 2010.104903 1875.524976 1758.583998 1659.880263 1579.526063 1516.933035 1470.720599 1438.794729 1418.587242 1407.534986 1403.458111 21691.229654 21685.239163 21675.785441 21663.395607 21682.414568 21817.261168 22185.724063 22608.673666 22625.953920 22062.896227 21023.146625 19681.606553 18371.247250 17331.079643 16500.572495 15783.892465 15057.930849 14206.464421 13339.067067 12547.868425 11697.314339 10820.898386 10097.747623 9553.045172 9089.715976 8640.192823 8195.322167 7764.170600 7332.853011 6908.646869 6501.422107 6114.469978 5747.551116 5399.390714 5068.392392 4753.054605 4452.163800 4164.846389 3890.544918 3628.964001 3380.013913 3143.766551 2920.429348 2710.336550 2513.952860 2331.880924 2164.860790 2013.746343 1879.441281 1762.777077 1664.321980 1584.135761 1521.563994 1475.256261 1443.370515 1423.474914 1412.746052 1408.676571 21586.017858 21604.290347 21633.749980 21633.288779 21651.018469 21769.171803 22588.927579 23873.907472 24286.238512 23675.407348 22493.119062 20558.031562 18748.028970 17772.035121 16980.430094 16357.773567 15726.552679 14553.500749 13403.551454 12784.230752 11779.737744 10515.015672 9669.962878 9276.738143 8946.790348 8556.054324 8134.308730 7756.979102 7339.366524 6910.539439 6504.202159 6117.583538 5750.627306 5402.269894 5071.042428 4755.504974 4454.467227 4167.058308 3892.714135 3631.130114 3382.208474 3146.015947 2922.758065 2712.769954 2516.518925 2334.610579 2167.786826 2016.901060 1882.852813 1766.461613 1668.257810 1588.171308 1525.170525 1477.689772 1444.975842 1425.814756 1416.200848 1412.538602 21419.037231 21484.002476 21617.983265 21711.094067 21676.408218 21000.154413 22938.453809 26061.968887 25757.677814 25844.484303 24910.721526 21308.621569 18771.823871 18193.958317 17573.365410 17154.309489 16750.493786 14795.100797 13095.431786 13743.433397 12301.152602 9581.396136 8772.521132 8869.027178 8757.950834 8509.798219 7861.176548 7833.192916 7319.757112 6909.646449 6506.201891 6120.337198 5753.464595 5404.965468 5073.537167 4757.812709 4456.630992 4169.127872 3894.735320 3633.141105 3384.240091 3148.093851 2924.905547 2715.010385 2518.877249 2337.113385 2170.460711 2019.769054 1885.928118 1769.734910 1671.660378 1591.432155 1527.133960 1472.548059 1434.206289 1416.805428 1409.885742 1407.408098 21170.099792 21290.333201 21629.509970 22206.692219 20219.368782 16314.404592 18788.654951 19255.516722 18689.725461 5917.421418 12134.557815 12986.006997 24093.938639 8649.111003 16338.736793 25892.953135 17764.920493 16980.661944 15675.863370 16307.448170 19787.405986 22105.692546 12693.132430 16687.502813 16471.121344 21868.681972 13217.266242 17461.474520 15527.031039 14670.576361 16429.407525 1618.914363 15140.906666 15064.039275 14997.386596 19374.683626 1390.432439 20595.557542 12894.666271 13906.067634 2999.265949 15153.036847 15817.715417 13423.279071 1392.116445 1383.038013 1382.542170 1383.019124 20826.793160 20950.890899 21334.481962 22193.379620 19873.310924 2998.975579 11622.176106 8020.680645 14903.337761 11671.379844 7191.989380 12566.899034 17939.781993 9513.842374 13519.277220 14500.904640 10822.449942 10845.834074 15321.940893 7567.876125 15375.489378 21621.762669 10075.819296 11249.028088 7637.549739 11473.698653 14195.167638 15304.641182 12775.026348 15846.853843 12058.067202 15426.175413 21467.909975 12654.556340 13610.385427 19287.984380 14953.206445 13994.462594 17315.275549 16566.656140 13678.914616 15899.708013 17421.738046 14415.853909 1304.570648 1309.608052 1321.624858 1328.765066 20418.620698 20490.295223 20705.290114 20963.978535 12129.366343 6930.316872 7794.654227 6228.900854 7928.896280 5577.475760 12158.544283 12395.641470 12176.896885 11817.626133 5660.903436 5518.224332 4719.402313 15733.662265 7341.778276 12217.241042 7911.865603 8152.286427 10550.353748 4934.845979 16746.947225 12081.873292 10463.100088 13083.987011 12179.923503 13211.951752 15578.244564 1244.383596 24093.387710 14775.271282 15517.577435 20959.704051 2248.668858 16765.691181 14230.412115 21708.239408 18959.458262 14551.146930 19668.835107 25175.443745 1153.032335 1178.026066 1216.062549 1237.623726 19994.087727 20006.590972 20067.127674 20028.543999 10926.427997 9110.464341 7408.267474 11956.912913 11661.014452 9017.067626 6831.336260 6876.361481 4867.627909 13319.219787 8822.844725 11817.449783 6499.807441 8371.640813 4644.380361 10566.392728 9325.106652 7173.230129 9057.007272 13113.282762 864.274709 5883.436265 13481.166750 8259.404695 17464.151710 9324.086244 11143.831626 11570.009988 19777.883800 15576.683919 18029.443841 13454.482065 23099.346716 6682.529169 13893.358475 6221.684650 21212.558640 28.698854 14048.383970 15209.804419 887.726347 966.410905 1062.697332 1112.909090 19579.210341 19546.294424 19484.124676 19584.477535 9235.298284 7894.779983 12245.229381 14945.850553 14144.422257 23636.412153 11875.428460 5984.321782 10559.914053 5558.508129 3407.679396 20087.419937 8124.233393 4976.036859 3403.270486 14788.741055 14771.350815 11886.735411 3999.423812 10267.994442 11516.642026 8179.685512 8767.005669 14243.335415 10473.316819 4038.325220 23369.159299 11685.272110 9315.477369 12404.689047 15646.796765 8129.736748 6109.267909 12473.318868 13967.870635 10262.427031 7687.542578 -5454.133185 8052.695387 7083.129989 421.505856 661.899160 882.834973 976.081993 19178.664879 19142.146411 18955.190467 18484.038524 7683.244813 13450.654456 5555.378942 3756.507797 5364.377563 6011.992198 8963.035274 9239.258184 13093.648424 5015.031192 15355.981392 3916.551693 7191.327837 5415.581068 -144.295510 3557.692421 8504.656028 14303.756741 8882.925051 11785.616999 5637.648283 14753.809040 11509.786624 3035.112419 7636.569177 6544.401465 -1043.924083 5434.920838 6357.960043 12297.277291 14558.796560 11961.346665 7247.818415 12732.624447 18530.720021 15022.625054 10256.248118 11742.251998 6984.567522 19520.867351 -439.691874 402.937982 737.041806 865.102404 18764.089798 18812.314833 19028.477392 19606.555429 4382.089002 6797.631421 3859.370566 3804.080652 10272.388076 10678.027310 5679.860201 3729.472882 4613.160719 3721.030459 8527.659613 4135.231636 6279.550658 10699.360863 5066.375287 4223.805627 4956.337336 11044.154004 10439.926512 6140.200686 41.341690 32632.268355 3947.530072 15348.796971 14405.587039 13745.779263 4464.989986 6942.277972 8390.233427 7202.609469 13924.724916 13660.070504 4779.892420 5316.794051 8704.625354 6985.297410 14097.406378 22433.507895 12342.807140 1388.437470 -705.308747 363.446375 686.899371 810.534096 18267.030784 18323.045315 18489.961619 18947.057621 3648.839002 5044.073284 3481.759870 6842.819229 3602.198596 2610.622587 7657.146035 3624.623271 4832.248796 3548.950605 3947.032930 3550.799436 7157.364260 10084.026798 4697.918000 3695.034186 7442.491543 4763.744236 3449.056417 4998.812934 7322.407174 4889.026353 4753.184111 6640.462284 3676.417649 13142.444010 4460.191224 18885.631396 17278.149470 16777.735765 7742.588186 20555.672153 5844.550000 12930.863108 17089.592535 -3492.630196 7294.785463 12905.854971 14402.641575 6226.767907 192.561710 520.624144 722.106169 808.341527 17693.296520 17731.721777 17740.195828 17486.712466 3973.807286 4778.301623 5422.265347 3789.195318 3837.327548 10765.986779 4021.988294 3564.629567 3735.060708 5063.123136 2540.283803 4213.829870 9554.060492 4249.990144 5064.268177 10343.149123 4809.848433 2863.828269 5436.343822 10129.005032 4356.377202 3832.803078 9529.033760 3777.453832 5559.552294 12591.968185 21111.216841 5354.839885 4418.808058 7146.760240 13061.144093 1963.735424 -5070.458394 3114.100814 11221.453754 12300.779257 7329.075031 6484.475293 8684.846853 21914.092457 616.911011 688.973411 780.115106 825.447670 17088.539953 17158.278300 17319.562469 17261.303635 3297.030585 3748.484154 10679.555627 5725.488647 3333.285543 10292.574306 8155.422389 3542.034713 3606.537213 3794.470516 6438.940903 4660.093710 2910.114613 2721.264097 3791.152337 3214.066314 5007.501205 6011.542541 4510.620771 3604.760510 4525.637808 3217.299935 11396.913197 7460.556792 4907.985678 11174.229120 3872.764851 8548.817884 5791.777937 10911.441689 7667.114514 6930.164360 4531.942548 6622.756209 5768.494079 12363.404129 2248.668858 21654.198861 20259.095295 4059.539629 752.425718 774.309205 808.594495 827.485891 16477.940089 16571.443647 16868.864266 17455.971874 9513.334187 3850.404124 11986.215296 11027.333026 8773.917516 10327.601132 3886.158585 9607.146822 3971.014821 11056.245707 10442.094035 8168.319260 4220.928131 3020.012732 4601.751989 5121.645253 4126.224191 9826.977927 4288.594625 3901.477017 4080.746774 3396.636806 3798.456520 11530.223749 3315.655552 11226.562320 3714.289425 6150.937457 3343.156823 4721.163742 5036.255428 8194.657010 10098.555682 7306.998633 10648.722597 9888.368339 7397.172728 14370.718325 13151.068037 5056.151449 774.623885 779.429648 790.894437 797.154545 15898.373166 15969.572874 16114.561237 16397.404960 9993.366849 3490.596017 10523.852581 3483.806284 12877.413724 12980.190474 3429.379045 7527.165946 8972.785270 10749.947232 13751.227344 3898.443987 3312.292201 8852.531477 6600.392015 10304.293590 9184.302346 6781.350483 9825.716104 3814.006813 6848.091221 3175.899209 3427.255590 3797.677544 8483.517770 3371.193087 4115.323081 8467.632720 4717.038393 4477.165224 3512.858641 4121.047235 6222.882984 4991.810409 4066.099263 9640.189129 5795.530762 5627.977042 7179.132679 6119.589984 729.278662 729.148611 732.228944 733.603582 15417.110782 15484.873543 15606.936020 15408.778434 10178.319748 9420.437784 6894.436074 23193.361439 3784.390193 10899.247130 3539.436648 10496.164085 12117.481858 7701.494071 8091.926745 4213.972491 6938.571885 8393.805855 -129.802873 10455.932404 6345.444680 4486.337828 11071.327344 11578.128292 2084.610228 9726.928366 9528.007468 4339.999898 6035.286342 4290.782469 5030.958584 3958.411948 11062.826168 3615.460688 3850.668412 9471.262834 10431.851443 10181.921129 10955.959669 6399.746816 4244.234208 4134.737698 5059.816994 4395.451705 645.104489 644.111742 644.593543 644.536207 15074.607588 15170.667641 15423.375000 15545.853595 4216.010361 7858.068476 8915.474864 3801.740408 9746.637902 3997.723957 2616.417887 2860.460084 15984.144119 3266.878683 9467.900154 10713.601039 9161.348241 8650.967416 11657.905831 9958.241422 4596.346684 12999.000860 7202.312127 4204.273338 3251.829023 9514.001943 13379.474698 8243.458484 6562.991925 10422.568132 4246.141764 9785.268463 4411.586672 15833.115471 3751.338705 10149.504868 9772.304137 9271.140477 1579.755972 1001.393872 3685.198846 5125.505087 6865.603076 4846.714566 540.658303 540.084038 540.114656 539.948475 14847.403811 14978.759015 15240.729787 15368.104870 10855.417334 10246.280628 6751.935282 11530.594116 4787.618402 14610.815099 14029.389683 3335.844028 6299.872791 14923.518432 9636.435199 7214.393070 8669.789655 2636.532126 3546.232566 10302.980928 6618.419374 4785.813914 -1196.560468 3656.785141 6705.804210 8352.853056 4597.038911 15636.565797 8104.565558 15399.170561 7989.250593 11948.738541 4806.576287 8277.561662 5200.248577 8939.367657 3755.047627 8915.703736 9651.129152 5198.249778 8399.681344 8543.974532 8797.881936 10200.570954 428.461939 428.561360 428.817791 428.939106 14653.426014 14853.383657 15336.769803 15991.060214 3901.335297 4890.008565 8350.142077 10382.385408 11222.790580 12132.563619 3111.980999 7763.621137 10415.338730 20579.244603 7839.979166 10434.849539 7034.542213 8210.736944 8288.183015 3570.291891 10330.917827 2772.257994 5041.075370 2515.208278 4708.399027 15512.477700 15912.480840 2933.203050 5085.612019 -18248.217259 4561.516953 7894.802758 9372.451404 6864.700370 7510.080080 12414.282492 14175.351763 9361.031649 10050.075527 10647.556829 10709.117958 2804.924326 4251.258234 4737.886753 316.817550 317.489404 318.084393 318.525774 14369.822560 14578.924517 15239.587910 16509.944343 4811.648383 8897.807880 5861.770863 8051.584507 8076.607659 10531.795984 4534.980882 13962.802186 13073.114691 14379.682544 17034.165691 4062.041584 3953.569899 6826.238513 4587.366262 9602.810136 15021.899043 21160.502962 7023.101963 3992.208054 4899.955299 13359.454083 9255.517845 3938.028119 4647.589076 11352.384517 37140.103075 7318.689611 16353.716253 3538.428818 18354.958041 10139.807543 5581.997112 4208.469460 14649.721665 8088.540374 11977.015124 8025.706626 4086.211317 4741.585109 210.900555 211.950246 212.805592 213.479778 13934.289219 13994.294089 14151.457496 14474.599454 10176.075397 10278.366959 8980.835423 8492.721398 9936.683338 13255.380508 6551.240401 15452.311621 12974.145940 9001.589401 15314.100885 11941.098303 9955.499474 10592.295647 13904.526131 10649.510787 10318.917532 14324.864319 16968.979211 3144.558948 2116.944009 9046.439874 13411.895532 9793.605558 9557.853184 9794.512353 11243.186216 10838.577677 9892.583915 13504.433492 15223.824453 9570.745610 3182.069093 14320.873765 13875.443435 4371.102833 5082.302998 4686.937597 11290.891393 2863.493656 113.572129 114.812530 115.808344 116.607785 13426.654207 13341.674140 13061.154511 12421.083054 3963.346786 6041.789459 8683.618945 13185.989762 1783.802719 15367.695072 4529.013034 16397.590984 6200.079202 -1830.337877 15110.412726 15699.814321 13257.829315 3980.015878 8452.987778 872.546483 8957.941340 5897.790038 7143.500251 3921.174166 2876.256258 10649.177797 482.547996 19689.715877 15658.368083 1509.233952 14802.982027 651.782573 12271.668198 16072.906962 7387.701991 11200.213200 11374.156193 8289.770619 5835.655189 12752.739556 10894.348315 6192.958623 17872.092921 3361.304827 26.037264 27.322051 28.351857 29.185250 12946.089748 12835.701817 12620.878255 12260.666493 13102.204649 13186.455694 5291.628565 11205.678832 5502.854757 13437.498946 15012.356716 15470.686664 10441.337999 22127.877492 9104.193795 7562.179611 17693.587197 2711.270046 9609.918968 14058.907914 19806.102191 14597.857392 19547.976373 6249.931496 12728.114431 4215.601186 5084.910871 8970.823607 5429.488411 2223.257885 15507.845462 16579.403059 16012.302150 10800.671422 12458.135275 10418.094633 16337.233066 23603.585962 7706.621466 11708.287207 11704.775095 2737.478785 9063.967299 8348.448292 -51.620399 -50.391519 -49.404924 -48.602885 12508.694172 12404.533543 12319.582104 12488.569431 -120.017671 -118.904758 -118.009163 -117.278882 12110.466146 11966.510338 11704.092236 11559.898482 -180.155740 -179.187810 -178.407028 -177.768893 11787.641807 11635.172206 11293.996778 10710.136346 -233.195655 -232.379896 -231.720398 -231.180365 11546.454124 11458.418382 11337.596071 11120.966166 -280.309241 -279.638872 -279.095817 -278.650410 11317.426071 11289.890827 11311.777024 11207.850576 -322.588648 -322.049006 -321.611053 -321.251335 11020.327566 11014.140668 11160.155089 11510.085309 -360.998902 -360.571805 -360.224623 -359.939101 10623.104196 10536.990144 10469.021810 10530.758648 -396.360092 -396.026743 -395.755377 -395.531957 10192.239535 9986.222713 9484.424988 8771.855835 -429.348529 -429.091271 -428.881585 -428.708779 9834.943629 9604.034154 9281.228615 9249.023024 -460.508847 -460.312084 -460.151535 -460.019114 9583.054927 9265.059378 8616.621272 8065.854743 -490.271379 -490.121925 -489.999871 -489.899132 9480.987407 9121.527131 8291.294419 6950.589162 -518.971068 -518.858141 -518.765856 -518.689646 9521.783779 9220.226412 8755.734347 8338.377241 -546.865625 -546.780638 -546.711151 -546.653745 9607.937205 9289.553563 8717.112761 8153.696853 -574.151717 -574.087970 -574.035832 -573.992748 9691.839135 9326.181523 8589.956751 7581.638285 -600.978673 -600.931025 -600.892047 -600.859833 9778.006896 9383.902339 8625.826738 7660.924266 -627.459661 -627.424215 -627.395216 -627.371248 9874.172511 9450.281707 8525.116285 7081.267173 -653.680516 -653.654344 -653.632929 -653.615227 9988.518627 9603.018047 8894.062428 8015.188428 -679.706554 -679.687459 -679.671832 -679.658913 10083.024817 9699.216432 8970.790734 8078.598199 -705.587706 -705.574042 -705.562853 -705.553600 10147.228957 9732.222973 8832.861835 7504.722499 -731.362332 -731.352852 -731.345081 -731.338650 10210.221772 9810.320735 8960.576670 7740.379935 -757.060000 -757.053749 -757.048613 -757.044356 10272.541658 9928.641508 9238.936390 8152.203981 -782.703489 -782.699719 -782.696606 -782.694017 10294.559450 9999.388076 9479.123082 8876.161010 -808.310221 -808.308332 -808.306752 -808.305425 10246.462353 9946.493444 9362.452902 8809.194031 -833.893272 -833.892768 -833.892314 -833.891915 10154.952439 9838.950708 9152.123627 8237.276614 -859.462086 -859.462542 -859.462869 -859.463113 10067.077158 9776.940193 9160.059737 8199.585533 -885.022976 -885.024021 -885.024828 -885.025465 9996.040454 9748.185736 9307.329283 8835.944897 -910.579491 -910.580790 -910.581804 -910.582610 9938.880252 9694.480490 9169.296839 8517.242840 -936.132668 -936.133915 -936.134887 -936.135658 9918.504384 9705.671225 9212.022475 8328.424299 -961.681235 -961.682143 -961.682841 -961.683387 9936.487036 9799.425111 9570.585532 9248.317623 -987.221758 -987.222058 -987.222264 -987.222404 9959.146978 9863.266469 9702.230072 9532.355469 -1012.748765 -1012.748202 -1012.747710 -1012.747276 9979.074441 9907.034201 9769.437731 9626.301854 -1038.254858 -1038.253190 -1038.251803 -1038.250634 10008.447375 9965.148060 9891.555750 9881.808292 -1063.730808 -1063.727804 -1063.725336 -1063.723279 10050.411017 10035.931132 9980.952735 9780.284072 -1089.165647 -1089.161090 -1089.157364 -1089.154274 10091.076908 10122.294309 10238.216887 10460.261130 -1114.546768 -1114.540450 -1114.535299 -1114.531040 10088.763112 10127.274688 10228.879375 10447.827864 -1139.860012 -1139.851739 -1139.845007 -1139.839448 10021.106080 10042.052041 10078.887044 10185.472025 -1165.089770 -1165.079360 -1165.070898 -1165.063920 9903.344470 9909.882975 9943.880931 10170.702263 -1190.219076 -1190.206360 -1190.196033 -1190.187524 9772.073380 9758.794238 9736.066657 9800.651473 -1215.229720 -1215.214542 -1215.202224 -1215.192080 9669.509411 9658.588289 9589.271725 9511.943211 -1240.102346 -1240.084565 -1240.070142 -1240.058270 9606.136817 9643.790009 9731.560621 9764.212473 -1264.816570 -1264.796060 -1264.779428 -1264.765745 9543.151766 9621.454751 9808.896957 10018.892531 -1289.351093 -1289.327742 -1289.308812 -1289.293243 9441.253815 9532.028089 9749.184638 10125.023091 -1313.683823 -1313.657534 -1313.636227 -1313.618709 9287.765731 9370.617344 9458.908322 9270.200865 -1337.791995 -1337.762687 -1337.738936 -1337.719413 9085.888128 9198.712218 9547.670392 10083.197203 -1361.652299 -1361.619905 -1361.593653 -1361.572081 8820.629789 8869.549413 8961.707732 9115.557189 -1385.241016 -1385.205480 -1385.176676 -1385.153015 8545.704277 8532.804740 8393.242671 8158.336609 -1408.534153 -1408.495423 -1408.464011 -1408.438218 8318.974977 8330.501732 8268.810037 7789.385409 -1431.507595 -1431.465606 -1431.431495 -1431.403511 8108.532849 8188.435899 8398.669862 8581.759076 -1454.137285 -1454.091916 -1454.054920 -1454.024621 7831.617199 7913.285121 8134.961637 8467.249719 -1476.399464 -1476.350435 -1476.310116 -1476.277213 7463.137645 7473.369057 7426.325579 7137.550776 -1498.271056 -1498.217684 -1498.172987 -1498.136778 7053.030775 7017.505884 6870.047504 6442.202284 -1519.730398 -1519.671023 -1519.619392 -1519.578170 6643.921370 6596.416807 6511.719127 6521.052800 -1540.758774 -1540.689406 -1540.624691 -1540.574299 6250.500740 6164.151939 5873.736594 5177.412384 -1561.343834 -1561.255069 -1561.162514 -1561.092769 5903.842954 5826.527504 5629.820793 5154.118916 -1581.487216 -1581.357625 -1581.201859 -1581.087337 5610.492632 5564.757492 5484.465227 5383.708477 -1601.220739 -1601.005230 -1600.701143 -1600.475750 5355.277048 5308.589544 5256.009424 5223.607995 -1620.634160 -1620.260627 -1619.598806 -1619.078666 5149.615217 5075.590832 4810.123903 4409.537297 -1639.889207 -1639.384413 -1637.807553 -1636.436996 5021.603857 5002.750056 4985.152530 4913.798510 -1659.308295 -1659.664521 -1655.168430 -1651.240813 4932.659045 4949.175551 5042.752143 5262.146420 -1685.578565 -1688.010965 -1670.232349 -1659.832917 4846.039200 4841.272225 4840.474859 4879.905417 -1745.396903 -1721.336668 -1671.915718 -1654.818337 4776.709883 4749.597229 4638.778095 4478.148677 -1761.894472 -1700.165245 -1645.779941 -1629.831865 4742.587552 4742.314455 4744.798637 4781.509657 -1649.849244 -1619.565410 -1595.881005 -1585.403982 4716.033420 4741.349309 4819.779181 4896.649923 -1550.191561 -1542.377049 -1532.667151 -1527.165995 4659.774275 4692.893821 4793.994961 5027.084331 -1470.723144 -1467.653311 -1463.488638 -1460.902653 4553.248613 4570.962995 4636.377333 4802.377040 -1394.587282 -1393.294390 -1391.491335 -1390.317216 4403.546396 4379.278207 4337.785387 4317.061424 -1319.230489 -1318.634618 -1317.826271 -1317.282135 4247.843675 4178.932971 3990.375761 3708.071867 -1243.618114 -1243.305254 -1242.913735 -1242.640695 4130.037751 4055.521211 3874.533640 3557.230286 -1167.320629 -1167.123949 -1166.906736 -1166.748317 4060.090673 4013.916265 3897.353655 3650.116052 -1090.148981 -1090.000284 -1089.856243 -1089.746085 4012.320157 4004.531592 4080.960256 4283.370075 -1012.014247 -1011.886213 -1011.774310 -1011.685315 3957.324852 3924.580946 3831.158650 3698.855995 -932.870091 -932.753504 -932.659624 -932.582479 3916.170179 3881.234276 3788.363305 3692.856690 -852.687541 -852.583435 -852.508762 -852.444315 3899.333316 3879.350163 3837.175091 3859.031841 -771.440827 -771.360948 -771.322633 -771.282309 3893.010787 3870.234432 3795.524356 3665.647333 -689.092489 -689.068540 -689.113207 -689.127778 3894.633501 3872.586108 3777.522449 3616.004652 -605.565259 -605.675060 -605.916063 -606.059230 3909.784403 3915.132820 3947.437448 4055.440054 -520.676197 -521.111552 -521.819826 -522.262403 3927.509189 3948.087970 3977.399710 4007.857381 -433.970789 -435.222223 -437.041577 -438.163580 3934.829827 3982.668725 4082.208981 4141.119648 -344.271900 -347.697912 -352.132132 -354.705726 3907.571886 3976.229982 4166.527125 4404.941070 -248.283309 -258.236595 -268.546468 -273.818139 3829.569759 3876.742472 4006.269926 4108.852445 -135.121425 -169.426676 -189.755930 -198.877686 3721.180044 3726.030563 3713.994653 3640.043573 3249.206170 2765.531301 2544.853690 2657.401671 2827.890828 2978.515953 3049.056231 3091.932683 3119.264015 3133.799352 3136.976057 3129.828780 3113.273729 3088.179594 3055.370942 3015.615568 2969.613445 2917.991870 2861.306570 2800.047049 2734.644322 2665.479510 2592.892249 2517.188268 2438.645830 2357.520972 2274.051611 2188.460667 2100.958398 2011.744110 1921.007408 1828.929118 1735.681959 1641.431066 1546.334372 1450.542912 1354.201038 1257.446549 1160.410694 1063.217938 965.985237 868.820159 771.816323 675.042405 578.515597 482.136612 385.525160 287.573137 185.060043 67.277235 -34.946784 -91.507241 -121.718852 -134.435320 3621.496894 3603.051884 3545.319262 3429.812206 3299.750868 3080.977646 2857.476627 2887.580424 2951.343250 3006.274050 3055.680472 3093.068367 3118.320070 3132.082047 3135.029391 3127.888395 3111.439950 3086.490212 3053.834002 3014.225062 2968.357233 2916.855828 2860.276761 2799.110805 2733.790682 2664.699299 2592.177950 2516.533794 2438.046275 2356.972358 2273.550674 2188.004678 2100.545021 2011.371299 1920.673329 1828.632092 1735.420430 1641.203566 1546.139512 1450.379373 1354.067586 1257.342080 1160.334369 1063.169509 965.965840 868.834213 771.876087 675.178968 578.805782 482.771049 386.992558 291.227319 195.240674 101.705325 20.828595 -36.161845 -70.080118 -84.739071 3553.919042 3529.052281 3469.543017 3374.002172 3252.088289 3119.893931 3019.199099 2988.036652 2998.580893 3029.652508 3065.003662 3095.881118 3118.336911 3130.956229 3133.491283 3126.260383 3109.862016 3085.019072 3052.487634 3013.003390 2967.252117 2915.856072 2859.370664 2798.287422 2733.040387 2664.013941 2591.550797 2515.959372 2437.520152 2356.490944 2273.111025 2187.604342 2100.181909 2011.043590 1920.379398 1828.370462 1735.189732 1641.002521 1545.966913 1450.234089 1353.948587 1257.248518 1160.265777 1063.126301 965.950497 868.854126 771.950323 675.354382 579.195354 483.644874 388.991781 295.845486 205.699850 122.018922 50.640396 -3.065790 -37.122680 -52.335659 3523.438522 3497.814799 3440.265753 3353.295842 3247.280163 3141.065552 3060.753359 3022.402066 3020.902646 3041.336607 3069.843777 3097.049867 3117.781015 3129.673286 3131.956514 3124.693707 3108.362121 3083.626613 3051.214983 3011.849082 2966.208209 2914.912046 2858.515540 2797.510870 2732.333251 2663.368419 2590.960406 2515.418816 2437.025136 2356.037984 2272.697271 2187.227426 2099.839825 2010.734598 1920.101955 1828.123170 1734.971301 1640.811747 1545.802662 1450.095293 1353.834256 1257.157791 1160.198056 1063.081578 965.930141 868.862770 772.000320 675.476299 579.462251 484.226494 390.265476 298.574847 211.105758 131.197740 63.269937 11.345961 -22.271925 -37.507337
</DataArray>
<DataArray type="Float64" Name="Velocity" NumberOfComponents="3" format="ascii">