<VTKFile type="PolyData">
<PolyData>
<Piece NumberOfPoints="2064" NumberOfVerts="2064" NumberOfLines="0" NumberOfStrips="0" NumberOfPolys="0">
<PointData>
<DataArray type="Float64" Name="Pressure" format="ascii">
 3748.674510 3723.082003 3671.212803 3593.785202 3493.278954 3376.331092 3260.468725 3167.880402 3104.541217 3059.339714 3017.640279 2970.027587 2912.659348 2844.838062 2767.227051 2680.994707 2587.453405 2487.913857 2383.632882 2275.800816 2165.543367 2053.925530 1941.951573 1830.558857 1720.605639 1612.854606 1507.954778 1406.424804 1308.640484 1214.828785 1125.069807 1039.307117 957.365940 878.977765 803.809331 731.493544 661.659796 593.961386 528.098140 463.832934 401.001496 339.515515 279.359687 220.583769 163.291097 107.625179 53.756258 1.870172 -47.837004 -95.152171 -139.814139 -181.438400 -219.386664 -252.652020 -279.982620 -300.343556 -313.263657 -318.962380 3757.587988 3732.800604 3681.924541 3605.597304 3502.133908 3368.662173 3228.056777 3127.298850 3073.790021 3041.473366 3008.019702 2964.419625 2908.911933 2842.055311 2765.033857 2679.224678 2586.025276 2486.782813 2382.771058 2275.188932 2165.166461 2053.770161 1942.003648 1830.801937 1721.019793 1613.415904 1508.635485 1407.194214 1309.466288 1215.678782 1125.913746 1040.118455 958.123308 879.666001 804.419987 732.024833 662.116031 594.351980 528.436311 464.134244 401.282379 339.791909 279.645855 220.891362 163.628379 107.996249 54.159787 2.296559 -47.412414 -94.784689 -139.622000 -181.653700 -220.366997 -254.684655 -282.895070 -303.596030 -316.495093 -322.125628 3782.787256 3758.979180 3710.561769 3639.710011 3541.693942 3370.966667 3141.076540 3027.598876 3009.738419 3012.286808 2995.576413 2957.932502 2904.966433 2839.328668 2762.978974 2677.604920 2584.731803 2485.760732 2381.989310 2274.627639 2164.811077 2053.608220 1942.022588 1830.987503 1721.354972 1613.880421 1509.205876 1407.844461 1310.168904 1216.406222 1126.639941 1040.820304 958.781949 880.267735 804.956766 732.494284 662.521036 594.699886 528.737865 464.402374 401.530940 340.034493 279.894742 221.156608 163.916975 108.311043 54.497481 2.643118 -47.092879 -94.576774 -139.722887 -182.517408 -222.960588 -260.129206 -290.819457 -311.987594 -324.458216 -329.751387 3824.664655 3802.222583 3757.357354 3692.426440 3613.717647 3404.821786 3027.739528 2873.955033 2943.118397 3000.574956 2987.663741 2953.059028 2901.708638 2836.933440 2761.102092 2676.090464 2583.504637 2484.780448 2381.231209 2274.074714 2164.450208 2053.427899 1942.011219 1831.132071 1721.640079 1614.287781 1509.714317 1408.430424 1310.807365 1217.071919 1127.308756 1041.470616 959.395826 880.831824 805.462803 732.939183 662.906580 595.032062 529.025936 464.657795 401.766220 340.262105 280.126151 221.401442 164.182288 108.600500 54.809967 2.969604 -46.777109 -94.332313 -139.701982 -183.138583 -225.577988 -270.272917 -306.585025 -326.422166 -337.104902 -341.543847 3881.110629 3859.272182 3815.262576 3750.040963 3604.853674 3593.755972 3340.857355 3816.353774 3582.330101 7955.925082 4979.684799 4507.931138 4261.309572 -1945.249068 3909.743014 3174.993249 3777.331742 3841.887511 3991.198858 4168.379762 3974.042015 3346.154518 4152.879528 3586.948175 4224.868948 3616.356257 4149.934440 3311.088217 3719.332801 3765.108555 4231.323217 3696.566749 4690.466103 3540.551187 3879.190834 3899.028218 4106.785766 3110.295582 4090.218539 4517.399113 4228.428590 3972.382301 3423.237650 3695.197589 -335.252948 -346.545834 -353.451992 -356.509731 3945.319072 3922.395493 3870.145630 3764.149904 3688.533649 4106.213406 4804.240391 3160.076155 4381.625068 7839.357807 10332.889408 7409.823210 5064.126716 7681.337070 6417.432234 3976.942946 10052.143175 4642.642130 3877.811715 277.538868 4226.554022 3987.320524 4957.935578 8762.758339 8885.612569 3469.977686 4297.824354 3881.223513 4194.930719 4188.636154 4861.985753 5422.677494 3943.979934 3803.564451 4074.909631 4123.418052 4100.579711 4095.952594 3285.970959 4444.772140 4088.375208 3887.398095 4453.779689 3898.482617 -364.992325 -368.107523 -371.462911 -373.134011 4003.035462 3979.711249 3945.354675 3926.049005 6952.257391 12817.059200 -2224.587890 3201.613288 2318.113014 9239.384434 4632.342760 7060.079830 9707.411688 11143.901147 5739.494450 -9855.426797 -1275.359227 3841.862512 8209.196617 8924.616491 5369.159077 6563.993602 5010.183925 6064.173423 -2310.540835 7169.643399 5144.904699 8122.078172 5000.037453 6919.697973 5123.517870 3878.724096 5377.252868 4073.555006 3918.999180 3863.319476 4470.319136 3838.872297 4443.732067 3531.909591 5965.459693 3920.933876 4507.700242 3244.679953 -386.908286 -387.837454 -389.171149 -389.903757 4035.655374 3998.367968 3959.899415 4041.438760 17872.818675 8495.838717 3313.770713 15046.731643 3584.282238 5976.016713 999.109822 -2894.772967 3966.835013 3038.945448 2142.789057 5506.328634 2199.681332 6980.884362 3901.377932 2998.945105 2002.337830 54.197117 4310.423728 2647.969751 -9263.947325 6820.910407 5024.920209 4207.976394 5215.702744 9913.101990 8793.383756 6944.807671 4681.915223 5336.542887 8380.420275 4702.375025 4681.763972 7867.056693 3762.593839 7195.912993 4598.273235 6827.981953 5877.494572 3930.794658 -404.888857 -405.096912 -405.545504 -405.787115 4041.120673 3976.814372 3825.042753 3693.119997 4011.081495 8272.083036 17001.048931 9850.162561 -254.160840 -753.794773 -4915.137615 7972.524076 4805.984549 7445.262184 5495.877824 10105.346083 1857.024681 13605.067492 1480.903654 4453.155817 -5715.714766 3580.063643 2565.566744 3763.982784 5036.073890 3615.514447 3540.009635 4097.644218 5403.427329 4883.156898 2963.202517 3464.526443 3539.711702 9522.559593 8124.688711 5524.964161 5027.817007 6528.386286 4877.644597 3481.804203 2443.472827 4179.210650 9761.112616 4493.489977 -420.230156 -420.181371 -420.265426 -420.287086 4040.420791 3980.398852 3859.235084 3721.420822 6033.330109 -70.766578 5646.349500 6004.728045 1459.461174 9647.360395 18223.447738 5944.499846 8260.537837 4797.704765 4434.880982 -265.634049 8229.771165 1968.462637 102.547923 3376.849790 3665.513775 6710.529812 7747.302236 6770.543914 5551.906810 2805.452585 2701.547085 3156.222493 -900.882291 2544.795185 4070.536813 2759.768182 2885.908518 3944.863037 4413.127329 7669.656641 6071.210895 316.842312 7758.664321 3927.210981 4122.585681 4655.780355 4309.572623 7234.447277 -433.521506 -433.385016 -433.327505 -433.261767 4045.426789 4002.678242 3924.113882 3845.837725 5236.989768 3480.515721 26113.925394 5058.774199 21903.820116 21463.827997 5794.137703 5222.408637 8020.711816 14778.272495 5286.747626 22888.393872 5240.721054 5407.478568 5512.982869 4742.893638 -1390.511345 6114.055862 5733.565193 -2112.649052 5330.483474 7866.590474 6908.371870 6268.871089 2784.591831 8377.020039 4292.269912 3848.706494 1904.447233 2354.663888 4106.014482 4647.583438 2469.542519 3363.020026 501.360968 -7167.746350 296.256718 4260.593688 3171.946900 1447.655017 -445.110797 -444.953236 -444.848226 -444.754650 4061.801125 4034.361161 4015.561127 4078.365197 20019.467361 5223.007639 19084.796006 20570.256893 8217.116377 13875.235589 18256.128687 26353.028751 7736.275915 20991.570857 20520.555826 20852.595866 6025.569848 25385.635883 5481.354136 17234.245808 5323.613158 6122.417614 6040.186570 6055.052339 5296.995250 15738.897313 5557.671506 7891.837434 8511.630505 8159.886261 4133.142251 6756.900823 6022.826810 1101.491656 3770.796572 5275.843361 3575.835518 4022.843265 6278.407403 3055.515675 1339.684658 1035.124911 -1208.869815 1827.545543 -455.255851 -455.104432 -454.991462 -454.895828 4095.466157 4069.136380 4008.090239 3915.832793 24198.619737 19833.988974 13890.611321 23444.885671 26132.303032 12229.025273 18820.956303 17419.852690 25934.955335 18190.676826 23332.860954 21591.938469 20638.755710 20576.840844 18666.108597 23570.744192 5451.619445 15149.375608 15102.430746 5485.535309 5340.359507 5680.549632 5757.363527 8307.518806 6210.594083 7571.214485 7796.565210 6156.943981 2821.899646 6739.125427 7751.372509 7236.911660 6060.484190 5707.834972 9077.146581 -6405.393333 6178.098109 -7057.392737 -7093.266204 3589.514127 -464.178741 -464.044645 -463.940225 -463.853430 4152.708326 4140.235492 4148.299349 4232.334991 24933.373840 16660.690556 14066.093719 12096.865292 20445.107440 14750.618341 10967.408415 24037.536947 19971.014011 12417.456987 16965.237978 11764.962120 20455.848592 23412.498757 19848.775785 18827.512818 25219.256289 18489.676890 18435.550700 5575.565522 21071.761632 7329.927214 18919.360641 5713.190019 5333.707613 1930.585078 6801.747659 6135.210670 7852.894813 10883.221255 9027.946908 11808.208713 18479.009514 -3147.168472 9940.986781 4053.076059 9257.772132 -2101.759030 10084.871624 10509.229790 -472.085723 -471.973346 -471.884178 -471.810636 4225.223463 4209.223969 4175.272337 4119.492953 16491.902334 23787.117429 10296.532631 11887.571105 19201.813533 11347.438191 11355.734910 11626.852069 13773.903526 23957.761660 11579.355242 14451.003968 13101.832408 12475.025430 22532.841846 24413.404426 15859.399841 19744.335086 18493.535602 16644.627745 20392.210339 17703.578308 23181.673458 17009.023719 21951.186162 19562.195696 11302.921366 4233.099851 5739.023681 4816.076044 5992.926604 3667.776642 5763.549498 6267.166561 5946.364009 7973.099462 19561.844139 1032.830448 6278.834656 8524.345220 -479.173807 -479.084520 -479.013032 -478.954284 4314.518884 4292.852574 4267.845347 4305.822630 12401.662519 13058.118386 11039.612158 8319.223488 10662.752835 6344.863514 9841.520450 14098.412345 21364.462258 22092.802799 5769.082808 15545.735817 23431.175000 11240.861859 14902.264561 12984.350039 14338.472904 12256.995930 12452.153778 14232.668228 20435.916314 21655.744931 22488.580600 16455.375161 18190.211222 19235.847340 24424.682159 22300.305129 21059.577775 24223.240675 11378.148704 18779.414165 19562.256729 10467.101766 9181.136790 8792.981421 7087.666523 8455.453378 21499.709793 -3112.991748 -485.631861 -485.565557 -485.512214 -485.468450 4429.499846 4395.735004 4282.498740 4125.995324 12732.927317 8582.718020 9246.823460 7303.091654 17481.878295 10673.387087 10155.726623 11262.133916 8188.334025 9720.273166 13150.328914 12932.581319 9324.809907 8808.701520 9350.145492 12242.452361 6767.172967 13042.127535 11726.961910 9101.178162 13442.931145 11893.657847 13402.731168 13111.526427 12664.465095 21213.285025 25624.963830 23210.192222 13762.829277 17307.359907 23119.714270 22772.587737 23764.810371 27380.621614 25198.993473 8169.062734 5426.196995 4264.618113 4744.083035 6758.936637 -491.639385 -491.595119 -491.559386 -491.530084 4577.577702 4572.239304 4510.128246 4268.668556 14411.557314 11221.734591 8738.099160 11289.082024 7725.626285 11538.313236 12110.522109 9352.015149 3677.598176 13350.097925 12364.037563 13590.684684 10660.515089 8963.575797 11588.812419 9022.941496 9347.885550 8899.090386 11897.863768 10718.710169 13276.506922 12232.068754 9752.943273 19072.713947 16160.632441 13612.197604 11754.347361 11791.223689 15001.232581 13503.225386 16046.296612 6953.711850 17077.470307 14220.399338 21273.028327 20130.100468 23207.548856 11725.276818 20250.568811 6006.998413 -497.364287 -497.340536 -497.321273 -497.305461 4726.892467 4777.235856 4920.876931 5051.863287 12472.017583 10180.083608 9916.763170 9006.443119 7681.838028 380.115196 7177.169413 11098.511634 11105.971737 -386.799896 7510.325346 9440.920730 9190.872100 23934.862117 8848.806016 8991.712679 9390.401272 6048.565339 8530.625658 12557.437158 7820.206037 12103.395353 13043.157135 8544.708007 8634.926730 3672.549511 11640.445624 6680.318730 12596.359126 12517.496548 12114.441175 13474.724905 14030.526725 14619.780493 14938.879423 17275.384963 10492.077002 25517.016513 32091.279698 29921.706351 -502.960189 -502.954962 -502.950596 -502.946968 4824.815601 4881.333070 5072.460221 5290.594278 24099.769130 4544.567539 5758.307582 3330.953084 11759.262779 4519.939955 13697.072140 9365.374724 4627.175078 5158.011269 10338.207933 9746.349680 4784.376846 6725.383693 10285.311716 10534.539891 12349.589311 9964.434398 13532.690390 9461.658357 9870.790007 8863.630443 8354.308873 12360.167863 8647.569529 9191.073375 13925.478984 8563.562379 9177.457867 12676.131121 8362.575124 9386.957998 8092.802566 10629.051284 11454.549220 10274.926024 14601.892855 12717.306364 17150.397574 26100.483733 -508.563580 -508.574469 -508.583068 -508.590028 4863.544718 4874.779530 4875.964039 4815.320191 1896.066691 7100.536080 -2431.720518 6317.158605 8693.318807 9548.073729 -8923.550507 -11511.801972 5988.320314 4150.470236 -1839.258209 2284.469675 9440.579864 7680.298378 469.299409 10637.455639 4604.827492 -6247.024607 4391.460118 11090.998000 10132.596814 -851.514731 8301.189423 11252.902200 5271.626297 8665.602104 6534.278474 8245.237488 7594.217461 7803.876053 7957.202521 11899.092119 8705.059577 9980.910008 8777.325361 9202.401825 15300.138056 14674.695912 8926.719858 12658.947411 -514.290943 -514.315157 -514.334468 -514.350165 4885.792001 4879.271344 4846.679414 4726.028507 1475.210976 11169.889219 10301.963869 4018.601796 8567.100481 -28200.389911 9309.890059 -10858.693260 6323.512113 8295.899529 -1194.350812 -5658.628953 2137.100561 7383.432504 -5862.268584 -15718.243516 15630.331412 5212.388468 -172.182121 506.158576 5987.132427 8796.904189 23.897087 8619.467849 -8875.035581 9291.831744 6546.475451 5878.288835 9460.363257 1947.879461 8343.987742 2234.072786 13096.309017 7722.185400 7452.513965 4613.682097 10053.526078 7498.867903 8772.637144 9154.323406 -520.236004 -520.270401 -520.297889 -520.320241 4926.976439 4916.753147 4915.040131 4997.245421 7278.430621 8675.512029 -9385.319374 10942.709009 1473.784775 -12667.672271 7554.777140 2313.750311 -9011.214847 -2528.438954 -8216.147152 1104.230523 2808.809200 -332.220413 7390.551626 -8941.739956 3797.496930 -11169.480190 -9250.343729 9591.531591 -20.453545 9340.211757 10725.423226 -1893.468341 5576.938012 9417.790891 4940.938341 20564.396710 6000.730134 4402.881214 8997.712580 10934.777972 5382.198836 8825.002368 4264.190216 7216.812993 8923.275813 6067.498741 9673.808862 7803.809516 -526.467203 -526.508338 -526.541218 -526.567941 5012.704977 4982.031435 4843.025423 4684.521747 -2113.943085 -26461.928854 -7008.745214 5811.095691 -9073.464875 -1879.474151 -25172.933102 -10022.924308 12714.204174 7391.378984 -2108.994929 15323.973115 3872.259880 -10259.770457 8184.269614 468.988516 9161.584204 5758.307582 15630.331412 9785.949230 -9384.947238 8925.934806 7575.622092 -2605.121957 -11511.801972 -6503.364761 -982.462566 7990.360314 8577.065729 -10261.048201 11331.652563 -6038.797413 2106.639194 1638.790776 751.726408 3466.831780 4083.550336 6221.699710 7297.754269 7819.168774 -533.025508 -533.069680 -533.104964 -533.133610 5167.301062 5131.710117 4949.739450 4593.884248 -539.922659 -539.965981 -540.000532 -540.028529 5393.494779 5374.727531 5149.314639 4683.125490 -547.139964 -547.178438 -547.209030 -547.233740 5702.300821 5762.855899 5810.490398 5905.115463 -554.627721 -554.657329 -554.680722 -554.699493 6118.125061 6259.972892 6385.838197 6367.946810 -562.305355 -562.322153 -562.335169 -562.345403 6675.661672 6947.423451 7387.960221 7710.968264 -570.062323 -570.062546 -570.062154 -570.061373 7348.827922 7709.882696 8320.200743 8900.889306 -577.759832 -577.740001 -577.723401 -577.709320 8100.418213 8496.745624 9112.442909 9602.615832 -585.233384 -585.190414 -585.155126 -585.125723 8886.961141 9355.635783 10096.100209 10497.160577 -592.296147 -592.227453 -592.171400 -592.124985 9566.437582 10160.553024 11428.375633 12750.245515 -598.743124 -598.646719 -598.568311 -598.503592 9890.027608 10491.891391 12010.644030 15246.488587 -604.356064 -604.230655 -604.128862 -604.045006 9670.835499 9984.678630 10749.859104 12635.431715 -608.909060 -608.754127 -608.628544 -608.525233 8962.320141 8800.317877 7698.896568 4343.562929 -612.174732 -611.990604 -611.841509 -611.718984 8028.039076 7714.062651 6675.135271 4211.814013 -613.930919 -613.718823 -613.547223 -613.406324 7027.320182 6747.564647 5887.933212 4451.370493 -613.967747 -613.729859 -613.537525 -613.379714 6024.153300 5888.764705 5610.437442 5260.745037 -612.094994 -611.834461 -611.623949 -611.451335 5046.978735 4986.519427 4821.854666 4645.718029 -608.149617 -607.870572 -607.645233 -607.460576 4187.145055 4195.075115 4164.547755 4137.643862 -602.003335 -601.710895 -601.474877 -601.281587 3538.773533 3639.838600 3781.174092 3741.249342 -593.570173 -593.270423 -593.028652 -592.830778 3121.397540 3387.243451 3992.913738 4573.967860 -582.813841 -582.513801 -582.271962 -582.074172 2832.454869 3210.093650 4429.577072 7273.775334 -569.754853 -569.462437 -569.226931 -569.034482 2583.634300 2797.333346 3358.677705 4798.176089 -554.477268 -554.201218 -553.979114 -553.797809 2448.125802 2479.841519 2262.520437 1280.170835 -537.134913 -536.884717 -536.683688 -536.519819 2483.970657 2519.819780 2700.543955 3255.012842 -517.956930 -517.742718 -517.570951 -517.431231 2613.080885 2606.775221 2393.998287 1653.783746 -497.252445 -497.084854 -496.950938 -496.842407 2764.769376 2830.874445 3074.487426 3607.160579 -475.414080 -475.304077 -475.216864 -475.146769 2817.366518 2907.990415 3003.524542 3069.752242 -452.919980 -452.878639 -452.847059 -452.822705 2688.422954 2866.825668 3520.045464 4713.442359 -430.333911 -430.372128 -430.404953 -430.433509 2306.496042 2417.689907 2690.634982 3172.826587 -408.302917 -408.431050 -408.536608 -408.624867 1756.060244 1809.205853 2083.306446 2728.409890 -387.551931 -387.779367 -387.965186 -388.119274 1189.250180 1111.965251 932.958565 684.386212 -368.874699 -369.209334 -369.481722 -369.706753 830.305958 660.762891 216.281276 -1051.646372 -353.120385 -353.568034 -353.931603 -354.231289 866.362969 689.540483 424.320897 -118.483149 -341.175334 -341.739089 -342.196239 -342.572470 1370.318928 1202.034689 780.338194 440.197144 -333.939705 -334.619275 -335.169669 -335.622083 2329.289971 2256.908775 2049.958485 1672.400143 -332.299011 -333.090115 -333.730191 -334.255783 3629.063897 3656.589498 3620.596308 3623.613936 -337.091176 -337.985042 -338.707620 -339.300429 5130.128089 5247.896432 5259.375762 4980.239391 -349.070253 -350.053319 -350.847376 -351.498305 6694.504259 6955.425063 7224.898957 6886.371087 -368.868698 -369.922603 -370.773273 -371.470100 8139.302903 8574.019220 9340.203492 9981.648622 -396.960696 -398.062627 -398.951492 -399.679120 9277.650809 9834.740803 11042.780568 12769.282788 -433.629578 -434.753028 -435.658740 -436.399709 9987.376414 10484.692369 11710.891793 14622.613639 -478.942612 -480.058560 -480.957796 -481.693069 10291.307324 10498.240281 10410.526640 9525.312836 -532.736378 -533.814850 -534.683573 -535.393568 10373.968906 10421.004091 10185.516358 8835.953347 -594.615445 -595.627374 -596.442325 -597.108129 10368.478774 10277.865564 9646.004434 8143.393199 -663.966181 -664.885425 -665.625742 -666.230431 10376.772036 10294.862149 9757.716120 8134.306014 -739.986304 -740.791665 -741.440511 -741.970457 10385.623474 10338.456816 10160.146749 9566.052115 -821.729387 -822.406453 -822.952516 -823.398595 10346.438386 10238.797479 9676.161259 8433.255380 -908.162040 -908.704723 -909.143508 -909.502117 10238.790169 10156.819162 9861.462130 8988.803700 -998.230162 -998.641844 -998.976762 -999.250631 9968.394800 9866.466151 9666.658120 9675.800322 -1090.929456 -1091.223835 -1091.467281 -1091.666202 9484.521561 9250.507283 8713.336912 8417.181740 -1185.374365 -1185.576365 -1185.751400 -1185.893262 8874.239605 8493.595766 7468.242770 5703.956863 -1280.858442 -1281.006198 -1281.150371 -1281.263501 8261.908863 7821.543418 6638.602729 4385.107306 -1376.897318 -1377.047682 -1377.222638 -1377.351840 7735.196165 7379.362729 6636.763701 5709.083655 -1473.241654 -1473.485055 -1473.800480 -1474.022283 7293.311513 7010.146382 6373.094936 5605.745554 -1569.838999 -1570.337691 -1571.009517 -1571.469157 6930.051654 6762.629715 6451.125818 6252.281895 -1666.703651 -1667.788167 -1669.277482 -1670.274837 6606.615971 6520.366282 6411.525091 6345.286538 -1763.604615 -1766.020598 -1769.360975 -1771.538664 6299.830715 6243.749902 6142.530447 5806.876348 -1859.348771 -1864.927309 -1872.485976 -1877.192174 6023.238818 5975.315432 6001.735511 6536.540666 -1949.985357 -1963.715767 -1980.929662 -1990.658271 5806.249043 5740.275148 5369.655021 4324.519275 -2025.005206 -2061.508353 -2099.961700 -2117.719324 5665.903079 5722.579510 6136.763711 7081.518667 -2085.752962 -2179.449208 -2247.779223 -2263.932660 5542.523276 5526.377830 5406.814107 5243.917458 -2343.543655 -2399.791018 -2426.636369 -2422.563610 5499.450762 5481.946221 5553.186800 5691.350631 -2774.217980 -2671.077929 -2586.099746 -2565.591690 5561.714991 5479.159874 5241.957913 5075.544786 -2828.278155 -2747.180308 -2690.167982 -2674.288284 5773.835611 5705.402343 5539.274443 5164.327105 -2788.016412 -2771.286061 -2752.933736 -2742.351751 6105.483032 6057.393115 5931.075691 5643.730364 -2792.385845 -2783.501351 -2774.335339 -2768.049196 6506.509650 6470.786806 6378.782586 6076.585826 -2760.665962 -2755.177438 -2751.334705 -2748.059019 6950.475487 6920.163933 6933.315381 7113.895417 -2675.744909 -2674.125994 -2676.750701 -2677.437792 7442.047384 7329.804821 7106.982325 6676.040451 -2519.538880 -2527.298390 -2543.792357 -2552.937399 8049.756089 7897.909668 7391.443850 6207.823131 -2267.105924 -2300.908710 -2350.774949 -2378.855607 8802.516628 8728.000961 8838.181569 9631.863001 -1871.586187 -1982.184465 -2110.611649 -2175.920476 9686.979302 9507.779568 9174.180254 8727.695237 -1225.143815 -1588.454829 -1871.629102 -1990.129164 10801.320084 10579.820214 10003.511117 9107.465760 -300.188763 -1322.396417 -1740.637078 -1883.682629 12176.349816 12064.406688 11904.302017 12111.435500 -520.487700 -1496.546795 -1793.200357 -1885.227854 13721.719602 13700.683017 13708.772030 14173.686418 -2185.490180 -1934.418690 -1928.571154 -1949.858755 15349.396309 15407.681222 15277.088223 14952.029440 -2636.696055 -2095.826754 -2020.622140 -2004.521238 16963.867856 17288.381217 17823.567977 18507.668274 -2174.859463 -2077.551613 -2026.230261 -2005.841429 18337.043645 18983.754862 20539.351836 23413.165522 -2008.568121 -1984.379648 -1960.107562 -1947.032442 19244.704686 19979.409455 21607.323862 24317.024173 -1860.508291 -1852.285446 -1844.108922 -1838.709589 19685.166179 20367.523736 21576.560259 22760.137892 -1686.977826 -1689.276793 -1693.521751 -1695.167818 19782.440918 20496.025317 21728.478935 22589.052703 -1480.004773 -1500.322627 -1521.468643 -1531.483887 19605.326182 20427.482591 22246.424585 24477.077104 -1219.487557 -1298.250526 -1344.381160 -1364.547946 19172.319835 19948.813259 21708.801009 24112.442397 24119.196893 23089.960444 22000.347873 23793.052505 21060.127753 18475.572474 15950.064475 14765.324924 15753.218000 13617.171417 15538.044306 12836.984297 12818.040737 14234.045920 13728.306797 13404.857315 13020.397444 12293.784549 11246.036694 11211.392802 11309.460961 11437.595739 12381.228990 14190.046676 12516.882760 10102.014606 9131.421626 10035.406561 9233.169679 6864.867462 6134.040804 7769.461330 7687.280734 7218.273418 6594.887061 2668.943714 66.414302 1410.932005 1553.561610 1376.742021 1155.866320 933.091927 720.907189 520.037582 326.700479 135.690166 -58.443964 -261.671199 -483.320693 -748.374528 -983.242048 -1113.817205 -1183.459208 -1212.576290 18601.288247 19191.523827 20345.042798 21902.915005 21915.489901 20786.195509 20387.915852 20581.693213 18515.202520 17030.765473 15593.815676 14473.789367 14416.097219 12805.144467 13666.472547 12835.267774 12428.107713 12770.830025 12472.552359 12483.433811 12440.664983 12012.378308 11408.066492 11221.974335 11598.752991 11923.330387 12145.318334 12689.797411 12266.925854 11213.585855 10717.313660 10645.015155 9951.799591 9156.334432 8672.099258 8226.126965 7656.508153 6786.690837 5486.060699 3878.199624 2656.882032 2074.477670 1740.315490 1456.290498 1193.172438 951.913563 730.824087 525.300803 329.498572 137.603354 -55.459292 -253.700720 -459.421981 -666.378031 -849.263494 -979.598494 -1057.633650 -1091.450046 18115.217919 18532.454942 19204.597549 19852.531738 20027.176048 19615.527348 18998.664539 18187.941764 17113.090102 15988.042757 14903.659799 13994.960171 13358.021005 12784.639894 12559.858776 12267.524585 12102.776384 12053.024159 12024.160576 11980.674165 11891.051015 11755.311769 11654.847124 11687.549320 11853.132465 12088.850743 12325.858533 12427.545973 12242.364239 11849.316862 11436.483327 11011.736477 10467.562589 9818.073595 9148.956139 8464.747231 7680.550631 6715.536362 5550.348595 4308.340283 3236.958423 2470.592581 1943.340182 1553.006006 1239.816300 975.085333 742.727772 531.610818 333.130670 140.596158 -50.693333 -242.917747 -434.395221 -617.178680 -776.521464 -898.208886 -976.139829 -1011.229470 17898.748333 18247.506132 18742.423691 19172.698642 19286.132547 18993.813629 18386.874437 17560.110789 16583.427206 15557.581652 14582.606908 13756.517804 13118.266507 12653.355397 12331.327942 12096.631021 11949.114312 11880.081112 11847.271749 11815.850978 11766.332741 11709.114277 11690.467959 11758.220149 11915.976167 12122.616177 12308.004150 12376.851957 12256.542153 11972.325796 11600.382207 11161.342628 10626.747806 9996.965677 9300.937065 8542.927904 7688.406177 6700.636118 5591.562339 4456.682536 3441.662011 2640.926859 2049.356499 1610.432433 1269.801875 990.980048 751.401465 536.447108 335.944698 142.703106 -47.782174 -236.893652 -421.944249 -595.396738 -746.031741 -863.018175 -939.619839 -974.703082
</DataArray>
<DataArray type="Float64" Name="Velocity" NumberOfComponents="3" format="ascii">