<VTKFile type="PolyData">
<PolyData>
<Piece NumberOfPoints="2064" NumberOfVerts="2064" NumberOfLines="0" NumberOfStrips="0" NumberOfPolys="0">
<PointData>
<DataArray type="Float64" Name="Pressure" format="ascii">
 7953.367781 7944.463319 7927.307989 7903.379947 7875.922443 7848.093599 7821.935998 7800.090427 7787.194786 7787.025198 7798.571197 7816.196793 7833.508639 7846.303405 7852.752581 7852.426062 7845.491655 7832.302084 7813.219743 7788.553953 7758.547050 7723.380310 7683.186936 7638.066521 7588.098528 7533.353760 7473.903479 7409.826177 7341.212205 7268.166526 7190.809953 7109.279186 7023.725969 6934.315651 6841.225369 6744.642054 6644.760404 6541.780909 6435.908022 6327.348499 6216.309958 6102.999667 5987.623639 5870.386168 5751.490172 5631.139224 5509.543378 5386.933796 5263.597798 5139.960477 5016.767559 4895.463014 4778.825343 4671.574367 4579.950798 4509.667796 4464.045207 4443.301400 7952.293591 7942.861057 7923.777094 7896.470906 7865.583931 7835.736176 7807.209455 7780.688445 7763.644154 7764.310101 7781.649988 7805.822560 7827.584449 7842.734959 7850.333047 7850.577669 7843.946245 7830.931093 7811.956705 7787.361087 7757.401057 7722.266211 7682.095213 7636.991593 7587.037776 7532.306787 7472.871506 7408.811533 7340.217893 7267.195883 7189.866376 7108.365933 7022.846020 6933.471622 6840.419464 6743.876057 6644.035683 6541.098440 6435.268418 6326.752033 6215.756569 6102.488916 5987.154545 5869.956775 5751.096462 5630.772497 5509.184031 5386.536668 5263.058254 5139.038737 5014.933791 4891.647445 4771.315645 4658.818121 4562.357511 4489.536691 4443.255324 4422.524377 7953.185087 7942.937844 7920.159028 7884.007686 7843.394075 7810.964212 7780.455418 7740.638901 7709.153404 7711.681846 7746.609235 7788.279934 7819.329810 7838.413401 7847.728867 7848.756855 7842.507207 7829.694208 7810.836292 7786.312568 7756.399043 7721.295265 7681.145787 7636.058061 7586.117328 7531.398685 7471.976514 7407.931452 7339.355178 7266.353330 7189.046876 7107.572292 7022.080831 6932.737178 6839.717716 6743.208594 6643.403736 6540.502899 6434.709846 6326.230683 6215.272359 6102.041340 5986.742412 5869.577528 5750.744533 5630.435348 5508.832704 5386.103290 5262.382535 5137.741057 5012.117027 4885.226359 4756.794177 4630.564792 4520.753293 4443.164733 4396.928879 4376.903941 7956.089585 7946.822586 7922.309368 7871.150561 7805.904574 7768.131919 7744.265653 7679.976633 7603.569589 7611.489884 7697.991060 7773.566537 7812.796318 7834.938879 7845.534155 7847.148932 7841.196024 7828.548889 7809.792111 7785.333955 7755.464478 7720.390930 7680.262722 7635.190737 7585.262784 7530.555911 7471.145949 7407.114558 7338.554081 7265.570527 7188.285000 7106.833929 7021.368397 6932.052830 6839.063307 6742.585649 6642.813450 6539.946151 6434.187216 6325.742465 6214.818558 6101.621621 5986.355929 5869.222483 5750.417083 5630.126960 5508.523805 5385.747934 5261.870892 5136.804582 5010.072058 4880.186293 4742.730500 4582.884189 4443.044088 4365.562623 4324.214353 4306.784994 7958.524149 7955.140453 7943.577043 7899.954050 7594.341503 7671.173519 7473.623558 7259.332045 6778.590184 7891.338205 10807.479633 7574.639543 6814.912205 10041.280862 9883.519966 6673.444112 7633.656244 10279.862823 7330.066522 10480.811428 7231.078354 7321.291882 7731.907500 9615.613649 9859.307875 7070.664797 10668.511288 7638.846580 9617.992423 9575.277483 7498.812046 8291.792265 9626.886917 7062.156050 7549.530740 7179.388720 10407.807445 6828.597288 6792.843177 11148.729844 10969.613439 7355.250021 9583.794042 7280.851010 4303.417925 4256.123385 4228.191549 4215.640581 7952.842936 7958.508824 7979.918305 8018.145725 7435.932268 9043.726438 11385.247232 10424.473968 8355.375803 9717.437887 10997.711911 7427.302235 7699.343730 11392.684271 6787.831713 7447.673052 8860.447051 7114.277948 11245.537496 8898.891587 7410.421868 7726.785350 7802.320671 7319.984718 8559.980511 7552.048910 7470.537440 7616.505032 10901.261008 10098.316549 10531.817615 8871.494683 9218.866595 6886.973315 7394.616830 7869.439699 8462.357682 7388.157724 7298.047832 8460.887154 6888.090283 9131.030230 10169.632659 7142.857912 4144.599576 4130.815295 4116.593210 4109.301637 7929.608419 7936.217247 7962.144140 8013.333885 7364.604476 10548.548527 6171.080436 9483.506117 9163.985874 11276.227464 7244.075851 11611.659923 10726.051445 9315.918721 10052.415849 8164.533183 10361.111867 7636.894569 10962.998074 444.618243 9932.683477 9465.352416 9280.853478 8867.454757 7952.048965 6903.167064 9707.747802 7769.801450 10232.049005 9816.499976 10604.682467 9341.928774 7686.822593 7459.171188 8844.389629 6683.115291 9716.412701 7644.464446 7007.665067 7205.988416 7793.998043 9801.514761 7507.881100 7017.892542 4008.610158 4003.804598 3997.642781 3994.048316 7888.227800 7885.841150 7882.121382 7884.734039 7228.170117 10126.864130 10670.813798 10076.131358 7873.820050 10785.200675 9294.359437 9200.975164 10252.342546 7243.827038 10145.194140 7759.633593 11243.955513 10307.925739 8963.067942 7436.214045 7675.010549 10489.945571 10790.875939 7603.616335 9517.785781 10549.935505 7437.677346 10381.818766 7941.955174 11263.779892 10347.410295 6609.995194 7093.543589 7698.190321 7081.050665 8186.476711 7602.577223 9397.899770 7749.936061 7608.376943 7534.339333 8042.656454 7631.653988 7894.974372 3880.555492 3878.742369 3876.171420 3874.570414 7839.583085 7827.187486 7796.055280 7746.065705 9217.438559 7129.856307 7743.971095 8295.403276 9535.756446 6709.675570 6942.394013 10402.288417 8063.162284 10789.182787 10537.076914 7451.177228 10507.761429 8224.310357 9854.197887 7812.430241 6904.129395 5904.151021 11011.240021 7471.872188 7383.613210 10180.611163 10345.461492 7766.437816 5140.048561 9284.389697 7040.232249 6949.337645 7353.173955 8811.251924 9301.266464 9077.023009 7607.428834 7102.476814 7628.650693 8887.024087 10250.352657 9091.766862 8367.198198 7394.001910 3755.971061 3755.285531 3754.243868 3753.579117 7797.364068 7780.948411 7736.794799 7645.717588 8463.667814 6715.791368 9710.731447 9849.388102 10411.854537 8938.822095 10846.768697 9118.353874 7672.723182 8416.656240 3037.567448 9880.226396 10785.477470 10484.244678 1978.391483 11372.948802 8489.645702 7298.298293 11278.686800 7474.820575 10627.189744 7164.841484 7917.748336 7586.797089 11617.843972 10956.331993 11713.120383 10788.380532 9949.137473 7896.697221 7358.329444 7524.590466 10103.612373 7042.082043 7241.999822 9890.972909 10441.685409 7007.181663 10369.823509 8259.524705 3633.308900 3633.078391 3632.683759 3632.434833 7769.026526 7756.509557 7733.379749 7696.390165 11276.242917 10539.243246 9959.943386 9820.213341 10853.224771 10550.747960 9967.466672 10095.230035 8641.021730 12898.694846 10341.867690 9758.473040 7600.789636 9165.167744 9874.185724 11884.468194 10220.503394 7457.348188 8665.070319 9070.636094 8444.706149 11635.283741 6928.109552 6975.392706 7993.923346 7671.603566 10988.851934 7685.683393 10211.164649 9560.946916 7813.390458 7520.496609 9799.017512 10493.566805 11067.061951 10528.303136 7383.051816 7691.536665 7532.737413 6884.360650 3512.014718 3511.976393 3511.857528 3511.790448 7753.870049 7743.901841 7724.972294 7719.481573 8934.801098 9137.420258 9643.193450 10166.188290 10285.337035 10829.137907 10072.607458 10029.001357 8203.326979 9204.658502 10694.012968 7841.757081 8571.421857 8567.775096 9734.605102 9910.232309 9190.131604 9875.424864 9802.361858 9531.814268 9049.592935 11996.964834 11343.662845 9227.103197 9630.604571 7490.902250 9481.524552 7649.362794 8093.692091 6824.040870 8990.781984 7125.838601 9708.240128 7246.644094 7028.989672 8330.847172 10081.228812 9523.332785 7841.646284 9077.812002 3391.908247 3391.955209 3391.956311 3391.969809 7749.735050 7743.762612 7715.515210 7640.901748 9075.339489 9890.436209 10500.664399 9931.283205 10820.205170 10588.075006 10270.287598 10769.892597 9870.236767 6933.616637 6156.137290 9514.954547 9553.096462 9908.288366 10144.502514 8621.744079 9944.414995 9209.955087 10778.032064 9687.885493 9719.010854 9748.307744 9435.217421 10262.264045 8957.481977 7564.237290 7499.769080 9824.853361 8746.883392 10226.307727 7070.368724 8004.109886 8840.995640 8612.934210 7394.995625 7183.649371 9987.788077 10984.403549 11618.125814 7006.622380 3272.955827 3273.043629 3273.099212 3273.150081 7750.957929 7760.498564 7780.088623 7777.092160 12460.402029 9639.470650 10061.091171 8304.121179 10764.083436 11581.042695 10494.926456 9950.116057 9793.418337 8939.013212 10186.261004 9398.627686 8788.748445 11789.495155 10350.507459 11101.450489 9828.159684 10389.421546 9879.664344 9510.136881 7546.166238 4531.238345 9408.420562 9944.132950 8860.854345 9117.227464 9402.274808 10174.045391 11089.859480 9027.175239 9225.556834 9645.626887 9598.257040 11277.249648 9760.926298 7492.241568 7558.378831 6862.454279 8313.685421 9951.292736 3155.180978 3155.290796 3155.373184 3155.443004 7743.590607 7765.629758 7833.539058 7950.786687 10306.680125 10197.795821 8092.567277 8508.959513 8932.331613 10085.936889 9680.253247 9184.705396 10046.655213 9379.215818 9910.341584 9149.352348 9686.207902 10290.960237 9143.874080 9983.354433 10679.181382 10703.142646 9356.865552 8903.780224 10030.386927 9697.146764 10835.379037 9634.046281 9512.633309 10911.115589 10699.871845 10347.515501 10015.471874 7536.760359 8150.226219 10784.785779 8819.154495 8524.051794 9896.816994 10050.911678 11210.638761 8276.580879 10518.065795 8835.248702 3038.628127 3038.751778 3038.849124 3038.929948 7718.678630 7736.126426 7772.165281 7814.448856 9886.993752 10576.986580 8523.329961 9633.810095 7605.168265 7236.467404 8407.460249 11167.911003 8615.237023 10425.970746 7828.087913 10046.205357 13877.302654 11124.313768 9979.994671 10483.361034 9041.988888 10309.202659 10344.592803 11986.031320 9217.364119 11442.308392 10727.987914 13180.663592 7815.888471 10163.515654 11387.570016 10012.275190 9739.997462 9375.450108 9770.498212 8889.628967 8577.622648 8480.893344 10017.586976 8444.546827 10573.288122 1304.055556 15250.503453 10838.921666 2923.347754 2923.481500 2923.588590 2923.676878 7681.941244 7698.086086 7709.629208 7675.086413 9478.049460 9810.571227 10437.783054 7618.413030 12206.254896 11084.764367 11714.137110 8247.394096 6661.748697 10750.108142 8290.859235 9734.735607 10057.398280 10132.828288 9608.320958 9267.629161 10321.287050 8586.306248 8725.781539 10265.981566 10304.187040 10189.811736 9551.217653 8399.326500 10287.982307 10354.172525 10431.629671 8967.569719 9773.335537 12359.231663 11082.861548 9584.575764 9561.595877 10479.675372 7946.027040 10280.944118 9366.913783 8702.690636 11113.395906 10707.836466 2809.390331 2809.532307 2809.646716 2809.740786 7636.405374 7667.401577 7740.463661 7791.955872 10541.648503 6122.677244 9324.357244 8225.355382 8013.892630 10141.156834 8764.404120 8310.813322 8238.445926 10394.900852 7963.625273 9148.023959 10914.493009 9671.490380 9172.059309 9580.795755 10383.636907 9751.481835 10245.576923 11854.514480 8203.725170 10358.683140 6805.448900 10217.773723 11158.491625 7635.404333 9390.618457 9541.099768 10586.662220 8629.440154 10144.198177 10277.363124 9049.119166 9466.901921 9052.703653 11386.051731 9418.580335 9019.890206 8232.068096 8297.237400 2696.803936 2696.953075 2697.073555 2697.172512 7571.557523 7607.481633 7702.485971 7786.268183 7443.809128 9220.746008 9153.437878 8583.726114 9375.519334 9592.171311 7135.201456 11639.756464 9309.477350 7581.095384 10819.466698 10990.927578 10224.446501 11072.903790 11559.097011 9800.286565 10607.637127 10226.006587 -5091.419044 11363.817466 11060.703109 10209.870568 10306.188765 7118.756625 7744.744293 7627.873988 11313.562284 9634.867048 9582.948651 11174.753596 10650.802033 10716.028051 10344.464864 9160.455394 8626.765637 9767.678501 10077.289735 10005.155882 9696.640701 10427.433498 2585.633380 2585.788964 2585.914774 2586.018064 7483.438097 7508.813765 7570.262775 7666.067602 10875.210984 11506.535453 10336.215135 8082.014466 8459.968892 7240.241839 11319.006910 10699.259725 11658.869210 8359.635166 9426.141147 7332.931588 8514.871962 10090.105931 9437.905917 9986.478364 10380.153494 8496.030713 10173.092337 8419.217631 6745.699349 8033.687648 7007.843678 10189.089134 9817.400466 9066.255581 9656.502866 10100.685193 10261.616178 11987.807361 10953.650925 7010.861915 7701.459307 10592.682475 9961.258919 10216.588408 10201.738533 12829.953518 10296.306877 10123.585716 2475.919988 2476.081460 2476.212084 2476.319306 7381.944365 7392.971137 7411.652848 7435.489919 8510.022960 9973.487856 9591.189859 9800.017554 7136.631639 10426.668012 9943.281687 7242.986794 7585.429106 7568.400324 7107.540338 7381.161368 12195.387784 10384.413129 10615.731220 8789.948606 7797.044027 7067.856592 10750.390380 9752.179217 9205.123496 7674.334509 11410.030845 9892.186017 6900.024831 8450.138480 10451.179335 6382.645698 7185.184348 11218.557570 7805.194914 10015.461407 10716.836476 9528.223118 -290.494582 5587.633302 9720.768844 8528.611851 11146.289496 10389.558889 2367.701636 2367.868526 2368.003554 2368.114382 7280.858734 7281.869224 7283.178445 7291.027089 8892.255708 10798.978648 9827.532796 9808.713374 7432.445103 6709.012743 13440.665041 9396.197178 8924.689019 8518.090872 10059.966018 11732.044837 9443.867516 9066.589385 7255.912134 9453.153143 9894.988498 8181.670636 9514.661793 7947.629612 10020.950373 10766.837499 7647.162742 10472.070007 9175.544866 9899.733142 8372.830795 7802.380573 7139.078143 9953.623256 6871.820327 10078.007293 10513.173634 7939.730506 7240.922324 9147.823081 11319.556285 9074.609442 7564.027901 11937.480247 2261.012914 2261.184801 2261.323882 2261.438032 7190.013379 7183.325189 7168.512942 7165.837942 9476.775898 10235.399411 7845.696127 10007.141911 15063.239041 9693.743951 9456.276434 6674.576001 10260.640651 10629.529592 9677.600958 7774.249766 7220.766923 10768.230908 899.001553 6141.519366 8845.545771 10986.317301 8666.078338 10373.019901 10125.188815 -259.857276 6868.679617 6969.119095 8114.844146 8779.037180 9136.325165 11245.749382 8892.287966 7627.560357 7279.761586 8643.928761 7579.603921 10309.002370 11648.659772 8431.327827 9981.355722 8200.390093 7574.952763 10195.807798 2155.885325 2156.061828 2156.204649 2156.321866 7115.661224 7102.915388 7074.951014 7044.368500 7961.368930 7619.892028 10945.936077 6309.280686 -195.230101 7728.980761 10010.508650 7948.987658 9091.760369 6793.314525 10050.707488 10679.587089 7181.874136 7153.086621 5993.217778 9243.303237 7594.918972 7670.098182 7737.839340 11083.271123 11008.428490 10893.970686 9869.885880 5589.552947 6310.092790 8977.245863 7843.912029 7444.917996 7159.536138 9122.950115 7338.537421 10114.261851 6595.840568 7917.479655 7659.165176 9678.753579 11369.136110 9610.324954 10001.045983 10516.926188 2052.347516 2052.528287 2052.674564 2052.794617 7061.650036 7043.995530 7004.703812 6968.320432 1950.425509 1950.610230 1950.759705 1950.882381 7030.438206 7011.960137 6960.665272 6885.171494 1850.142934 1850.331317 1850.483757 1850.608866 7019.615822 7012.048680 6987.755659 6902.199246 1751.521271 1751.713056 1751.868250 1751.995620 7017.444900 7021.684157 7064.052389 7159.794001 1654.580078 1654.775034 1654.932797 1655.062274 7015.301931 7006.082661 6984.783335 6980.906960 1559.337225 1559.535150 1559.695317 1559.826769 7024.953292 7008.708381 6949.586402 6825.564877 1465.809123 1466.009843 1466.172274 1466.305584 7052.834266 7050.774165 7050.925087 7034.026143 1374.010948 1374.214316 1374.378892 1374.513963 7086.575059 7096.618848 7139.167559 7244.925351 1283.956857 1284.162753 1284.329377 1284.466131 7114.031069 7124.920067 7152.233378 7228.507049 1195.660206 1195.868537 1196.037134 1196.175507 7133.694556 7143.696201 7182.402927 7277.285557 1109.133756 1109.344453 1109.514969 1109.654917 7148.571247 7149.214419 7148.864873 7166.213814 1024.389875 1024.602896 1024.775295 1024.916791 7167.421212 7165.437246 7157.631779 7119.612289 941.440733 941.656059 941.830326 941.973357 7193.302238 7200.058247 7215.269197 7278.384513 860.298489 860.516126 860.692264 860.836833 7219.873158 7241.174033 7306.856567 7424.095347 780.975473 781.195446 781.373478 781.519602 7238.429880 7261.881040 7334.712308 7490.051710 703.484354 703.706710 703.886674 704.034386 7254.037596 7267.222820 7306.067274 7406.157272 627.838305 628.063113 628.245063 628.394408 7286.450688 7290.490350 7290.467516 7297.937240 554.051156 554.278502 554.462510 554.613546 7356.821362 7370.621467 7390.655017 7409.683394 482.137540 482.367530 482.553679 482.706474 7471.737985 7514.603131 7614.985700 7772.907618 412.113027 412.345781 412.534171 412.688806 7621.646952 7694.116403 7866.416888 8166.576631 343.994252 344.229906 344.420645 344.577212 7796.736106 7885.446237 8082.076268 8375.355855 277.799025 278.037730 278.230941 278.389538 7997.080974 8092.269327 8279.038526 8513.389138 213.546442 213.788362 213.984176 214.144912 8225.851640 8333.255337 8545.111522 8814.388895 151.256982 151.502289 151.700848 151.863838 8475.960928 8594.790138 8841.909118 9198.429128 90.952585 91.201466 91.402918 91.568285 8735.166098 8852.251724 9076.949156 9424.745979 32.656738 32.909384 33.113886 33.281758 8996.752779 9112.836568 9308.026685 9556.761143 -23.605467 -23.348855 -23.141141 -22.970630 9249.272241 9375.132860 9623.131241 9941.873163 -77.807271 -77.546485 -77.335392 -77.162105 9469.853376 9587.348308 9813.593217 10055.780784 -129.920200 -129.655029 -129.440385 -129.264183 9648.222898 9735.057071 9898.553330 10102.212233 -179.914030 -179.644258 -179.425889 -179.246628 9798.038797 9839.912137 9852.585400 9760.465557 -227.756751 -227.482159 -227.259888 -227.077423 9946.609183 9972.876976 9967.882720 9825.046025 -273.414546 -273.134914 -272.908563 -272.722748 10099.161233 10125.682532 10155.787864 10058.195768 -316.851773 -316.566880 -316.336270 -316.146958 10242.627881 10265.212255 10262.781865 10093.201805 -358.030957 -357.740582 -357.505534 -357.312579 10363.434296 10394.255872 10444.146522 10413.716898 -396.912782 -396.616705 -396.377042 -396.180297 10443.867793 10473.520669 10540.529340 10594.864494 -433.456094 -433.154096 -432.909641 -432.708961 10479.731046 10486.642334 10501.893920 10485.078925 -467.617905 -467.309770 -467.060346 -466.855588 10491.757438 10470.332435 10393.060240 10277.762144 -499.353397 -499.038909 -498.784345 -498.575366 10512.253519 10484.020335 10403.392233 10268.282420 -528.615931 -528.294881 -528.035004 -527.821665 10562.183238 10539.503727 10450.758448 10303.765020 -555.357062 -555.029239 -554.763882 -554.546043 10647.327940 10664.574105 10664.568845 10584.596006 -579.526543 -579.191742 -578.920737 -578.698263 10733.748201 10821.239753 11048.548486 11358.481911 -601.072336 -600.730355 -600.453539 -600.226295 10752.330611 10874.087452 11188.433742 11652.113943 -619.940620 -619.591260 -619.308471 -619.076324 10662.390228 10763.213468 11022.882743 11432.515857 -636.075799 -635.718861 -635.429940 -635.192759 10484.823679 10519.714632 10605.227444 10783.274742 -649.420495 -649.055785 -648.760573 -648.518230 10291.235123 10255.059683 10101.699116 9802.955605 -659.915553 -659.542878 -659.241220 -658.993584 10157.815747 10114.640391 10001.011971 9792.333342 -667.500032 -667.119200 -666.810939 -666.557884 10102.699949 10078.341596 10028.751680 10019.612473 -672.111189 -671.722008 -671.406990 -671.148389 10107.879846 10104.053634 10111.953182 10194.844417 -673.684465 -673.286744 -672.964814 -672.700540 10147.419163 10154.166658 10147.864313 10120.978370 -672.153460 -671.747007 -671.418011 -671.147936 10203.015053 10228.603487 10315.742355 10515.450720 -667.449903 -667.034527 -666.698308 -666.422305 10257.021636 10273.582473 10292.059568 10295.377711 -659.503622 -659.079128 -658.735530 -658.453470 10313.524003 10330.879336 10349.927054 10352.863861 -648.242501 -647.808695 -647.457560 -647.169313 10368.890757 10403.934444 10479.127018 10579.350315 -633.592443 -633.149127 -632.790295 -632.495731 10398.504299 10440.084065 10569.387669 10830.502118 -615.477322 -615.024298 -614.657609 -614.356595 10385.717316 10398.440305 10386.701922 10337.470811 -593.818942 -593.356009 -592.981300 -592.673704 10345.304488 10350.333766 10362.820450 10372.877796 -568.536990 -568.063947 -567.681056 -567.366744 10285.224580 10282.279688 10283.813690 10335.465172 -539.548997 -539.065643 -538.674407 -538.353246 10210.856619 10191.363685 10151.820477 10080.471640 -506.770306 -506.276440 -505.876697 -505.548554 10134.167351 10098.022753 10006.361973 9860.307427 -470.114038 -469.609462 -469.201052 -468.865796 10068.070006 10026.084890 9946.463574 9871.414177 -429.491083 -428.975604 -428.558372 -428.215875 10020.667756 9970.714749 9841.355890 9613.599260 -384.810097 -384.283529 -383.857324 -383.507464 10003.418750 9963.223273 9897.261763 9852.808977 -335.977514 -335.439682 -335.004365 -334.647026 10019.564882 9983.296094 9892.796455 9760.522930 -282.897592 -282.348335 -281.903779 -281.538857 10074.257410 10056.668622 10017.319167 9878.043288 -225.472463 -224.911644 -224.457744 -224.085152 10161.238255 10162.532387 10213.557565 10238.980814 -163.602228 -163.029741 -162.566429 -162.186107 10266.741058 10258.824665 10233.712778 10118.012801 -97.185057 -96.600856 -96.128130 -95.740064 10389.364625 10379.080627 10366.444525 10363.622939 -26.117317 -25.521457 -25.039450 -24.643722 10525.677944 10509.176884 10458.729274 10370.868356 49.706331 50.313582 50.804446 51.207558 10673.939786 10664.186098 10642.725089 10599.771751 130.392926 131.010843 131.509481 131.919252 10824.037690 10820.111465 10829.139363 10877.963358 216.051493 216.678306 217.182105 217.596785 10969.314984 10957.245740 10915.633779 10812.164285 306.794100 307.425603 307.928339 308.343769 11117.855135 11106.812273 11085.877852 11023.394267 402.738812 403.365039 403.851915 404.258234 11275.845956 11264.585352 11246.746727 11235.718019 504.017291 504.614530 505.050316 505.424135 11450.284138 11435.166897 11401.664471 11352.588021 610.793686 611.305158 611.605839 611.891760 11651.409813 11633.941799 11587.347212 11520.244323 723.311062 723.599447 723.564462 723.632080 11887.661081 11876.596226 11827.746427 11640.937646 842.006333 841.733346 840.883949 840.431187 12157.399959 12166.588210 12194.687887 12097.057548 967.803029 966.103058 963.300180 961.653291 12444.106445 12467.434857 12517.824662 12520.910606 1102.908883 1097.385757 1089.963470 1085.747073 12726.476330 12769.586057 12866.175621 12971.426662 1253.275693 1236.275655 1218.427342 1209.397451 12971.054262 13029.935125 13175.289549 13411.967585 1438.329349 1378.484197 1342.650651 1326.661633 13146.923860 13201.225060 13336.825239 13584.251903 13696.711764 12863.982364 11706.188138 11767.993511 11799.393746 11419.185288 11237.085974 11233.809038 11112.384329 10978.383975 10860.874266 10763.269961 10619.207115 10450.936904 10264.547903 10063.068671 9848.654185 9623.041107 9387.718225 9144.003284 8893.085661 8636.054855 8373.921674 8107.634432 7838.091007 7566.147204 7292.621846 7018.299124 6743.928809 6470.224947 6197.863651 5927.480516 5659.668104 5394.973816 5133.898362 4876.894959 4624.369251 4376.679904 4134.139709 3897.016898 3665.536095 3439.877658 3220.172664 3006.487051 2798.779264 2596.792275 2399.775627 2205.724892 2009.005364 1791.228060 1607.276501 1506.147564 1452.027104 1429.368381 13247.537770 13278.772914 13346.728094 13433.212681 13334.064040 12737.130265 12129.596870 11976.110224 11803.554784 11576.747828 11392.474860 11262.512628 11142.561894 11023.925919 10901.462424 10768.666312 10617.997927 10448.231473 10261.583005 10060.229415 9846.056104 9620.707818 9385.642469 9142.169128 8891.476572 8634.656372 8372.721960 8106.623995 7837.262131 7565.493307 7292.136895 7017.977153 6743.763558 6470.209640 6197.990880 5927.742232 5660.055682 5395.478174 5134.510117 4877.604607 4625.167368 4377.557394 4135.088177 3898.029328 3666.608301 3441.011608 3221.384328 3007.825221 2800.371561 2598.961511 2403.355218 2213.031742 2027.501440 1851.362604 1702.056015 1597.866194 1536.160379 1509.684571 13291.121412 13297.265097 13296.194759 13243.774188 13069.783451 12743.094183 12392.812424 12099.774235 11857.375756 11644.555672 11462.837996 11310.948367 11176.606171 11047.674235 10915.619030 10774.017666 10618.209754 10446.467573 10259.230996 10057.830880 9843.805942 9618.665589 9383.817197 9140.552664 8890.056426 8633.420387 8371.659730 8105.727003 7836.523398 7564.906899 7291.697430 7017.679381 6743.602044 6470.178544 6198.083852 5927.952385 5660.375636 5395.900151 5135.026078 4878.206407 4625.846960 4378.307111 4135.901202 3898.900654 3667.536855 3442.005184 3222.471218 3009.081803 2801.987792 2601.396179 2407.700396 2221.830712 2046.219900 1886.635763 1752.750476 1653.132291 1590.443324 1562.692877 13303.255190 13296.436769 13267.679023 13180.632199 13000.423785 12730.802963 12425.820518 12139.704243 11890.074500 11674.742929 11490.516749 11332.528510 11191.547010 11057.121749 10920.490888 10775.213927 10617.135220 10444.378417 10256.860898 10055.509409 9841.657381 9616.725428 9382.086355 9139.020452 8888.709712 8632.246963 8370.649291 8104.871159 7835.815314 7564.340817 7291.268202 7017.382065 6743.431590 6470.129583 6198.150571 5928.128490 5660.654381 5396.274412 5135.488466 4878.749411 4626.463108 4378.989190 4136.642607 3899.696050 3668.383613 3442.906667 3223.444465 3010.175490 2803.323692 2603.261428 2410.735468 2227.328419 2056.225873 1902.917013 1774.598938 1677.630905 1615.389814 1587.477556
</DataArray>
<DataArray type="Float64" Name="Velocity" NumberOfComponents="3" format="ascii">