<VTKFile type="PolyData">
<PolyData>
<Piece NumberOfPoints="2064" NumberOfVerts="2064" NumberOfLines="0" NumberOfStrips="0" NumberOfPolys="0">
<PointData>
<DataArray type="Float64" Name="Pressure" format="ascii">
 5544.844387 5531.779632 5492.827395 5408.431373 5243.330623 4970.813740 4612.409219 4230.893065 3889.877562 3620.072476 3416.130470 3258.883983 3131.086025 3020.706759 2919.682498 2822.485727 2725.298250 2625.577252 2521.787376 2413.191889 2299.668389 2181.543230 2059.447274 1934.196050 1806.695326 1677.870920 1548.619913 1419.779552 1292.109919 1166.286623 1042.900326 922.460495 805.401428 692.089182 582.828502 477.869260 377.412132 281.613507 190.589642 104.420230 23.151477 -53.201145 -124.650364 -191.234697 -253.016056 -310.077260 -362.519227 -410.457382 -454.016148 -493.319019 -528.468971 -559.510613 -586.370757 -608.814652 -626.521940 -639.304516 -647.219692 -650.607729 5579.159430 5570.172059 5542.158429 5469.281532 5294.807198 4984.160979 4592.867004 4193.891695 3849.663720 3592.448911 3402.887919 3254.236275 3130.097916 3020.770711 2919.721103 2822.169654 2724.611133 2624.617404 2520.680542 2412.054308 2298.592984 2180.596632 2058.671863 1933.614080 1806.313612 1677.685277 1548.618951 1419.947701 1292.429663 1166.740058 1043.470141 923.130521 806.156876 692.916680 583.716010 478.805922 378.388119 282.619862 191.618154 105.463333 24.202178 -52.149317 -123.603406 -190.198182 -251.995240 -309.077318 -361.545825 -409.518023 -453.123327 -492.497271 -527.769089 -559.030866 -586.255004 -609.148803 -627.160045 -639.966314 -647.768222 -651.084383 5638.104840 5633.359227 5615.519707 5546.630055 5324.444217 4908.280906 4471.308022 4060.291812 3724.776563 3520.526516 3372.705431 3243.267125 3126.776653 3019.930280 2919.466503 2821.839568 2724.038731 2623.826101 2519.755725 2411.089405 2297.668073 2179.771686 2057.986623 1933.090775 1805.960654 1677.500991 1548.594880 1420.071289 1292.686294 1167.114490 1043.947449 923.696641 806.798872 693.622809 584.475677 479.609568 379.227091 283.486282 192.504811 106.363587 25.109896 -51.239818 -122.697409 -189.300648 -251.110961 -308.211281 -360.704084 -408.709796 -452.366047 -491.828722 -527.276206 -558.914584 -586.940097 -611.062110 -629.918711 -642.548559 -649.871507 -652.910442 5708.994712 5701.615651 5678.018987 5607.748561 5401.825659 4965.428330 4460.010860 3910.221428 3556.536898 3457.013336 3350.523314 3237.097054 3125.265613 3019.897024 2919.624370 2821.763145 2723.651347 2623.183512 2518.953568 2410.223836 2296.820029 2179.002087 2057.336703 1932.584727 1805.609105 1677.304516 1548.547152 1420.161665 1292.901817 1167.441326 1044.371847 924.205516 807.380105 694.265353 585.169541 480.345732 379.997391 284.283292 193.321740 107.194194 25.948420 -50.398706 -121.858650 -188.468855 -250.290524 -307.406617 -359.920225 -407.953836 -451.650739 -491.181760 -526.766075 -558.732810 -587.728241 -615.459784 -636.232373 -647.337416 -653.345569 -655.797716 5783.560937 5769.686525 5734.644581 5680.613076 5597.755149 5583.461720 5397.995697 6006.750801 5811.512119 5303.727336 6231.797113 6443.882737 5948.869805 5839.135819 5964.085656 5842.255340 4962.298163 5957.650456 6101.034739 6273.165467 5616.211017 5380.682966 5965.307880 5399.578185 6073.786472 5230.021743 6206.249839 4161.266087 5398.619596 5729.005055 5511.406080 4618.123158 5187.041495 5672.872632 4408.048100 4244.168160 5057.462676 4558.372602 4414.050454 4600.279799 4316.401581 4533.035513 4094.628414 3382.582290 -648.013804 -653.828369 -657.522224 -659.126272 5860.857704 5848.953490 5830.827118 5799.910751 5775.658081 5917.783331 6206.169819 5837.647829 5975.439724 6043.899290 5744.613575 4672.527022 6338.963070 4570.230910 5778.795156 5535.224997 5762.437116 6355.745126 6044.635776 5450.644687 5530.592826 5946.850266 6290.443606 5518.230908 5713.776647 5339.468234 6150.664740 6112.837815 5960.198211 5812.805407 6114.058993 6140.924424 5892.868854 4772.746316 6315.732368 5425.353102 6076.355552 5714.217900 3596.886231 4629.426695 3436.554589 4497.743795 3976.232919 3629.175670 -658.050293 -659.531018 -661.219225 -662.026806 5936.322253 5929.835493 5937.571693 5941.328391 6195.996284 5783.500370 5236.349506 5533.463558 5605.894481 6457.279060 5452.111389 6083.498376 5753.489720 5257.438798 6449.385609 4784.934147 5492.651579 5326.881057 4912.321403 4825.567326 6032.772353 5206.134296 5874.635038 5260.517954 4636.575769 5195.951244 6099.147799 5346.577104 6271.937669 5680.336515 6139.174984 4343.750790 5637.134361 5381.049094 4850.133722 6053.041178 4345.406875 4438.980081 5325.882087 4299.854974 4897.944960 4386.723053 4386.839796 3841.956366 -662.486125 -662.815362 -663.402528 -663.691866 6002.761649 5991.337697 5970.044163 5951.977168 5710.718752 5898.603784 4984.645173 5827.883723 5506.867471 5603.507896 5179.666188 5165.053306 5065.878306 6454.919037 5482.083782 5133.434674 5198.004140 5317.376024 5840.169111 5733.619730 5197.849765 5731.705596 5707.987188 5728.352930 5268.408614 5827.736646 4887.590996 5288.010658 5959.983376 5955.885126 4388.334550 4885.771698 5691.552797 5910.665039 3811.048651 5230.610051 4916.401320 4361.144339 5710.230045 4865.514045 4971.528974 3677.817340 4268.682318 4228.346732 -663.522975 -663.475006 -663.588601 -663.614400 6059.902447 6056.054127 6052.954435 6022.311990 5459.332911 6302.710774 5258.701237 4776.097658 4915.591745 5024.999570 5391.163079 5274.396277 5144.830346 5085.043759 5555.324189 5550.187545 5672.492659 5303.529128 5153.357370 5677.835408 5105.066688 5072.413247 5548.829980 5191.940710 5635.565663 5052.629057 5634.956573 4826.886394 5391.538998 5171.358824 4783.828094 5306.200724 6480.589903 4001.393378 4798.531444 5594.924972 4774.224192 3911.692600 4786.782294 4304.278135 4553.787540 4190.272433 3682.331715 4977.675783 -661.930719 -661.753119 -661.676070 -661.587582 6103.774074 6106.406292 6118.388604 6076.404059 4683.739280 5252.084637 4849.673399 4658.114200 4891.013799 4796.023908 5184.719613 4851.613410 5474.640388 4271.420214 5491.803044 4690.948573 5454.198028 3850.894534 5111.106224 5019.683776 5144.735036 5439.684547 5500.757087 5306.889448 5495.098611 4831.047845 5502.066816 5273.702718 4973.925115 5044.517460 4766.624647 5300.971756 6312.914080 4749.443978 4559.975847 5566.283575 5612.131054 5753.695706 4311.209056 5134.975773 4449.104921 4535.423808 4073.426311 4043.169737 -658.088845 -657.871093 -657.723238 -657.591969 6135.490804 6140.769962 6139.454296 6090.045125 4857.988584 5257.001406 4010.085184 4726.805339 4515.074913 4663.992059 4227.829055 4682.970777 4736.335814 4929.807555 4620.741882 4160.471361 4609.082111 4767.157280 4477.874737 4592.792396 4983.294131 4113.204719 4680.699403 4760.134168 5453.264387 4879.188655 5633.950045 5192.915860 4013.805853 4636.010929 5453.960420 4568.983976 6502.544303 4800.900054 5019.118919 4262.737113 6196.556233 4437.492956 4897.977839 4057.065694 4482.422291 4817.053355 4570.118567 4347.909701 -652.233720 -652.010138 -651.841118 -651.698406 6159.345702 6191.614429 6250.378854 6221.783685 4184.492616 4705.543223 6606.851885 4930.891411 4566.405773 5993.067080 4626.271199 4057.841014 4789.829756 3980.233162 4358.209935 4332.829535 4478.304073 4208.238262 4754.590426 4987.625937 4695.506426 4523.657950 4534.340731 4433.722183 5185.018802 5118.854802 4908.870999 5149.727847 4957.722447 5179.697918 4941.877025 5504.149750 5084.086949 4926.971120 4981.191299 4967.459842 4509.591997 5696.490485 5389.343260 4392.516599 5516.069886 4183.366783 4779.058215 5842.400052 -644.540859 -644.324553 -644.154463 -644.013243 6161.376602 6214.161514 6347.610295 6396.445502 6220.996290 3930.494470 28360.976155 8808.335370 4777.829358 15608.307375 15605.404790 8472.779615 6243.176511 6487.833453 4303.431409 5613.546945 4711.156523 4126.272154 4271.387208 3906.956654 4646.020767 4991.015851 4916.282624 4671.731782 4751.351990 4747.026850 4636.629331 4508.430113 4324.479874 5243.527949 4971.818358 5056.829553 4868.198860 4955.819833 5355.251262 5461.327652 5160.361493 5009.582103 5360.462499 5171.695183 5263.466049 4452.291638 5238.324478 3785.435921 -635.154803 -634.950307 -634.786844 -634.652023 6129.609405 6161.687536 6241.776057 6326.796585 19409.810021 14293.205655 4542.303726 26993.837860 19881.537747 19106.320176 22360.853433 21007.550583 19490.258384 20452.210184 16237.186911 18909.567599 10062.014886 5918.150189 10723.364345 4534.961980 4119.823497 4056.930395 3993.819819 4714.670651 4451.125226 4675.468700 5006.591543 4942.361434 4658.847134 4404.799669 4657.216348 3510.739894 5333.049379 5246.732097 3898.457350 4564.199905 4333.089813 4970.068951 5177.829941 4716.059110 5042.049284 5241.856392 5536.193567 4720.201449 -624.200532 -624.008829 -623.854485 -623.727534 6079.129695 6083.351138 6101.647014 6168.721378 19805.015914 19462.351977 1831.403749 20922.140256 21004.989811 5972.551815 12252.761307 26427.138648 22761.566011 25358.103490 3303.792614 21793.899061 26445.436733 21075.719589 19976.191523 11003.848832 16652.990525 12589.254050 9548.950423 7273.071880 6972.025676 4022.295011 4110.555521 4944.711535 4072.589638 5008.815909 4780.394245 4700.916793 4430.850838 4583.032648 4389.799393 4477.547047 4480.563147 3832.006217 4026.435642 4016.954636 4032.588359 4226.355526 5596.072136 5549.136814 -611.787908 -611.608501 -611.463586 -611.344527 6033.056607 6001.723836 5919.321125 5908.816623 14660.161878 23931.242302 34.583048 7155.402197 11755.805315 569.742395 3458.124536 17200.002005 29117.412233 26834.588734 523.175582 23788.478826 25646.704483 18211.260877 23886.785369 19670.953290 22375.326264 21884.146263 18788.572901 21162.453843 16943.551659 12149.067915 5173.254567 11860.630964 5943.758017 4851.851264 4156.383986 4004.974757 3715.246316 3999.102161 4821.049362 4728.755219 5040.041397 4803.260055 4292.895215 4097.958468 3341.608338 3507.268426 4508.032781 4575.845140 -598.013530 -597.845329 -597.709264 -597.597529 6020.355573 5997.129800 5951.081027 5937.790059 20380.978152 2378.222950 -1025.463695 -79.150742 25636.361974 216.034402 -654.689462 16872.631862 1659.996235 -38.357226 4621.558397 17272.255035 8745.986252 9377.644410 7320.270709 16615.257440 7436.859645 18305.188671 22728.645150 8249.327715 20270.774425 21902.451383 21311.070218 22181.194465 18224.958219 12424.158304 7291.914573 14155.386471 14987.494915 8881.634898 4411.236153 4019.576828 4252.144911 4813.884204 4790.081774 5063.880579 5092.097494 3934.180349 4005.413809 2399.144641 -582.961801 -582.803527 -582.675408 -582.570219 6040.820922 6037.478316 6053.341170 6114.561127 -158.283986 8075.969974 -612.697456 12959.868491 324.933787 18561.243869 19916.376891 8612.939495 411.368560 21059.073792 8201.941064 1499.597565 -317.479313 9803.186387 15223.327068 1647.113947 2206.034142 2655.159883 17182.501962 1546.346698 17996.387786 10960.572066 13350.355083 21046.187685 26087.202629 18623.279665 22787.199351 21448.751350 18386.753024 14271.792800 14432.365021 7114.570509 4452.637709 4207.880959 3968.132534 3595.497570 5033.899359 5032.436312 5507.825987 4927.634172 -566.705903 -566.556286 -566.435143 -566.335690 6083.305048 6093.177927 6131.308771 6216.718916 1188.381640 2190.150077 748.260805 -10.531030 790.062250 2611.862247 -747.556410 -502.899879 520.132019 -1128.047178 890.965611 3426.026836 830.843492 25346.755487 455.104518 694.844198 3949.467418 -864.669053 -171.978685 1093.469014 6723.592769 3861.518350 13192.485389 3237.569861 4836.337598 427.106360 8369.965860 9523.164219 17137.954226 24009.341655 20436.656886 18473.445178 20084.477781 7735.518391 7130.920530 3947.298061 2502.484519 4612.134696 5313.182362 4474.212209 -549.308916 -549.166783 -549.051691 -548.957210 6137.559767 6150.059356 6146.079936 6150.138854 29609.779858 -1769.731206 -12477.586993 508.637282 3506.634409 950.337150 554.963796 250.438228 -1074.042203 1093.352322 249.483831 137.105071 139.078126 34.408746 -377.096999 -193.802115 217.676609 456.347434 926.075218 -67.536671 782.177791 428.876630 460.943970 905.017033 484.909826 2221.958643 756.904253 3549.688148 8370.878599 19578.366676 15610.393573 10052.638018 18651.913660 20734.843263 17339.113890 11300.128447 4927.789794 3790.810053 3686.663438 4302.941483 -530.824924 -530.689210 -530.579307 -530.489081 6192.268028 6243.369969 6317.714760 6269.867104 -3063.330390 -695.332345 -2443.307543 365.850874 41.042119 -4085.138374 -1489.297727 -17222.846909 -763.093041 188.104135 -1971.635879 -632.072627 -17590.572714 5811.076978 -8239.076882 -686.306971 25.388119 -1352.374258 511.198971 -655.476438 -347.946633 265.319768 262.995085 -286.715186 565.057950 -124.640922 -141.824681 367.223943 337.804862 500.304418 320.456660 6396.516515 9031.274437 8807.727752 18744.484385 24493.722620 13517.134718 6447.701525 5815.581290 4635.844431 -511.299701 -511.169351 -511.063764 -510.977059 6205.163090 6270.956704 6386.406623 6322.637944 -179.478383 878.946113 -110.415181 -19043.005371 -21694.320969 -27229.356492 203.591892 -3597.099453 404.262653 -326.832449 19.298140 -1148.499875 -3133.572491 -3733.854061 -1167.667977 -14349.098283 -10623.748250 860.322231 73.942858 -2735.220242 8238.123276 -469.886274 565.261629 -75.776702 -1195.069653 37.644875 -2793.002426 176.370629 190.790889 1550.526340 730.455288 1875.505118 6802.791098 1973.578495 3077.880930 12075.561765 20143.271365 19302.893069 15327.511386 11103.583371 -490.770160 -490.643895 -490.541547 -490.457441 6155.273558 6211.357434 6379.583183 6411.345837 -1774.664155 483.072957 -4251.377160 133.753938 2826.693371 -12667.672271 1081.009504 3503.408292 -13055.513697 -1933.456286 -8216.147152 474.580581 4383.386317 -5521.320469 12569.871494 -17947.797286 1967.219839 -4748.406235 -16487.679104 -12502.388183 -921.485326 22426.848069 6562.121151 1530.762470 9415.430110 -419.140504 -1816.934240 -2570.316097 -431.705977 197.307026 -31.231841 -357.723205 1982.793924 928.566559 387.984427 1648.645433 9026.849504 12609.463274 20706.334041 25282.941926 -469.261383 -469.137276 -469.036528 -468.953621 6061.784114 6035.227592 5952.780057 5866.282056 -4614.137993 -19043.005371 -18075.689824 -11689.724009 -9073.464875 -20505.103982 -28571.454658 -10022.924308 -18690.231329 -22150.215875 -15221.037530 -22150.215875 -15497.486135 -1621.349359 -10833.533620 -12643.927559 -9717.386872 -12477.504948 -13604.512967 17785.084296 -2197.034608 25261.246672 -4543.185019 -572.934922 -16401.073785 -159.226863 1579.328273 -877.866615 511.377131 -1951.428250 -79.338791 2508.525669 942.147557 1379.426529 1957.106355 1950.387398 8523.439100 6131.337085 5131.068032 10955.827778 -446.779624 -446.654435 -446.552553 -446.468515 5996.565069 5955.080506 5853.559972 5753.503244 -423.299410 -423.167671 -423.060079 -422.971040 5979.310799 5955.499439 5895.466528 5796.498671 -398.742831 -398.595706 -398.475078 -398.374889 5989.359015 6007.393692 6093.513324 6071.928394 -372.949665 -372.773717 -372.629011 -372.508466 5994.242372 5993.946113 5987.752510 5916.908916 -345.638302 -345.414433 -345.230087 -345.076297 6006.652764 5993.293855 5957.727081 5880.325099 -316.359873 -316.062867 -315.818544 -315.614771 6039.764677 6042.945820 6114.237075 6138.263639 -284.451709 -284.051033 -283.722477 -283.448875 6090.943133 6065.908114 5982.107289 5836.863021 -249.001141 -248.463919 -248.025779 -247.661721 6177.292015 6152.765217 6040.398417 5846.030218 -208.836375 -208.133817 -207.565822 -207.094839 6291.797087 6313.999110 6302.439000 6156.394179 -162.566637 -161.686003 -160.985117 -160.404322 6392.970902 6490.212862 6714.938509 6747.186074 -108.697406 -107.663754 -106.868341 -106.206572 6427.455810 6540.924271 6740.204890 6744.164413 -45.845222 -44.763302 -44.004863 -43.360162 6386.736818 6493.826496 6678.293011 6684.127172 26.940296 27.796209 28.171416 28.546688 6277.220766 6361.953716 6613.791113 6804.691525 109.807157 109.775399 108.895784 108.386073 6127.978081 6102.416229 5983.316335 5912.579874 201.949441 199.384941 195.017596 192.117013 6020.174216 5977.574498 5788.649609 5538.439641 302.431796 292.892139 279.186932 270.256121 5954.124341 5958.803087 5989.956599 5894.442580 413.802221 384.049702 345.811173 322.889517 5889.536055 5870.526043 5812.215309 5695.131330 554.963361 458.857680 360.308789 311.090201 5829.007072 5794.106003 5675.138809 5504.808106 783.162501 465.062168 239.805769 172.877855 5781.153452 5762.206954 5708.713692 5550.653951 446.388061 -88.585163 -137.420867 -138.369785 5737.895913 5699.473506 5570.660537 5347.007652 -1698.492948 -1085.648681 -689.480337 -563.732135 5717.072138 5688.539367 5600.822584 5439.634972 -2994.282314 -1624.333500 -1139.354181 -954.942531 5711.765760 5707.748194 5705.307512 5632.864723 -2178.068505 -1712.752228 -1361.283122 -1206.299182 5704.890050 5714.555240 5792.935368 5811.281321 -1754.096966 -1588.179903 -1403.225304 -1305.480662 5689.576612 5662.653661 5560.083675 5425.952674 -1505.458144 -1434.135562 -1344.248017 -1291.335964 5684.117719 5684.908546 5638.907655 5458.281845 -1308.999577 -1276.261678 -1233.049423 -1206.247426 5657.050358 5695.761127 5819.020084 5813.785595 -1129.424072 -1113.893613 -1093.174334 -1079.982301 5581.100482 5563.595407 5468.503770 5352.552126 -954.619134 -947.306031 -937.497276 -931.185527 5494.889414 5452.431538 5288.815171 5177.278214 -782.155956 -779.008346 -774.614717 -771.813993 5413.039122 5433.018485 5439.309194 5363.213483 -613.531426 -612.623912 -611.010134 -610.058661 5285.533173 5330.942240 5468.281059 5551.566097 -451.500563 -451.855415 -451.718268 -451.775401 5105.595639 5130.279183 5291.308543 5471.863989 -298.759870 -299.831282 -300.488032 -301.100453 4929.541289 4838.415178 4542.407570 4397.387783 -157.308482 -158.754382 -159.815396 -160.714116 4854.829536 4825.059243 4704.288255 4629.282389 -28.180317 -29.762859 -30.983202 -31.991657 4832.567893 4923.713084 5225.238843 5446.795650 88.603685 87.059751 85.846059 84.852114 4781.799119 4830.801843 4920.824047 5014.925284 193.944860 192.568376 191.476600 190.585775 4725.596457 4692.919497 4495.613571 4358.254191 289.488142 288.367382 287.473918 286.745861 4706.356513 4680.148504 4599.601913 4568.719526 377.391447 376.576525 375.924200 375.392507 4712.403124 4648.656634 4405.200143 4270.671778 460.071248 459.576159 459.177448 458.851614 4757.291309 4762.653823 4744.830417 4666.430149 539.947013 539.752529 539.592605 539.460193 4800.132667 4852.869289 4955.485900 4963.045686 619.202599 619.260339 619.300673 619.330101 4796.718166 4868.886064 4989.286390 4980.907581 699.578449 699.816020 699.998631 700.142566 4737.731252 4794.329401 4886.885373 4878.698018 782.204258 782.531102 782.783232 782.982378 4645.186401 4656.229421 4681.227123 4729.080847 867.477394 867.790726 868.029431 868.216271 4580.851691 4569.227776 4562.453903 4633.890392 954.987449 955.177406 955.313202 955.415055 4584.565997 4569.715926 4500.878340 4501.819488 1043.482007 1043.434697 1043.372878 1043.313233 4652.558096 4665.493713 4620.219921 4534.351326 1130.863792 1130.460215 1130.097288 1129.793648 4738.465004 4801.601557 4985.580050 5028.773282 1214.206756 1213.313889 1212.523871 1211.878561 4775.622474 4774.815186 4786.157479 4808.578284 1289.782596 1288.228583 1286.826937 1285.702791 4784.728120 4785.703092 4840.483934 4872.795725 1353.108054 1350.621602 1348.276250 1346.437241 4770.083396 4735.705302 4629.774548 4589.879990 1399.075489 1395.136207 1391.146741 1388.113757 4754.587689 4784.135704 4911.509606 5017.264265 1422.357351 1415.806426 1408.546451 1403.248144 4719.462303 4754.041848 4844.053870 4973.259680 1418.597061 1406.549570 1392.044355 1382.007548 4664.220618 4759.349138 5033.098845 5220.583747 1387.790289 1362.292018 1330.616038 1310.346555 4553.819791 4593.171795 4637.404454 4633.499106 1344.563433 1280.217710 1207.085570 1166.263176 4431.700951 4472.020283 4597.277584 4598.117753 1347.858450 1154.826619 985.470289 915.556251 4310.646145 4282.876314 4275.878724 4327.943515 1341.630358 848.767735 589.661870 521.439743 4270.955405 4144.396494 3796.935041 3536.936208 206.388425 -125.363412 -51.125498 2.404387 4379.258635 4199.485010 3777.237734 3555.675996 -2054.570565 -1199.853136 -679.344451 -504.122595 4642.810118 4504.541509 4167.758905 3860.953412 -2585.442456 -1512.496414 -1031.472846 -851.701230 4998.800878 4920.682704 4780.906427 4516.203702 -1599.061948 -1340.259004 -1117.733477 -1010.765049 5391.846141 5309.548302 5119.588120 4793.061387 -1054.921139 -1109.942200 -1078.509727 -1049.232577 5819.709275 5786.141174 5817.038940 5670.209539 -845.878636 -945.267147 -1029.020356 -1060.230610 6279.465000 6249.809251 6227.469409 6043.483110 -883.278976 -990.224649 -1105.201345 -1115.141524 6797.922835 6752.918408 6682.404088 6464.301083 -1776.854014 -1615.264736 -1336.034341 -1190.096414 7410.924707 7327.360386 7182.255380 6899.450213 -2995.206627 -1998.055378 -1358.690581 -1144.306540 8171.639401 8004.973659 7508.590250 6848.870649 -2130.824435 -1514.200079 -1089.345626 -903.765960 9123.822413 8980.116909 8666.012039 8147.281304 -1053.881100 -905.442278 -656.699222 -508.293825 10255.860706 10130.089486 9840.334859 9342.660304 -901.315783 -585.670811 -200.925898 -26.222842 11536.222871 11420.428371 11174.058081 10706.597471 -1364.133857 -256.407400 293.700875 513.717444 12951.923364 12737.167890 12053.568855 11242.787713 -645.839353 308.017151 842.902459 1085.517182 14509.548338 14339.836703 13973.597868 13423.027480 77.695287 716.756547 1329.887646 1631.425735 16118.876095 15987.831649 15840.613550 15417.653197 -199.907884 775.736278 1701.824848 2120.222179 17703.465787 17410.046695 16578.483420 15717.778934 -203.627205 925.786209 2124.518201 2596.412676 19285.605791 19089.941366 18641.143716 18252.313544 637.586266 1502.664575 2616.699127 3077.659222 20715.435193 20766.549781 21347.677358 21812.169736 616.500106 2082.249785 3115.521543 3553.702590 21848.012386 21757.711859 21558.480506 21017.368989 665.972119 2684.669182 3608.438567 3992.888522 22852.428902 22697.346536 22213.475834 20989.566886 2382.850935 3310.042191 3968.405408 4315.160041 23868.192434 23759.378422 23387.500288 22212.118763 2461.419820 3005.325444 3992.570455 4476.151675 24889.743555 24998.496257 25208.873427 25060.246410 568.193204 2367.009982 4005.583441 4610.458120 25722.607662 26071.916165 26994.818866 27988.830893 1176.417276 3052.836209 4373.242925 4881.072802 26161.935471 26545.490829 27523.497657 28849.511775 28787.520575 26473.604467 24083.360327 21246.827018 20626.442600 19447.982713 18273.510907 16686.104689 14626.566336 13234.710946 9739.283145 8919.012033 7723.142093 5653.676604 4684.065149 4607.526408 4070.962759 2411.624223 1067.697237 1445.532222 1596.648233 1222.531831 712.608794 311.039736 1.875780 -37.778215 17.661645 -217.062561 409.141013 931.813864 631.943966 604.213120 500.911555 175.992888 -12.628925 460.437282 1549.310514 2243.293464 2555.607791 2780.544172 2877.477914 2827.674894 2574.365911 2791.233995 3446.022869 3952.969623 4245.012646 4410.636408 4374.712751 3933.745973 3728.532040 4303.030058 4948.961222 5271.576206 26231.223593 26483.380282 26982.791337 27546.150369 27364.284546 25838.110205 23922.224899 21703.305496 20419.998791 19166.517805 17858.282092 16119.087717 14272.327986 12465.261998 10149.799626 8937.363662 7515.218305 6100.097515 5199.566331 4595.490000 3792.482610 2754.755045 2033.280444 1688.882464 1464.778354 1159.151928 806.478580 492.151039 269.953071 176.726462 162.660987 228.821970 431.946897 604.344138 643.651992 634.410525 608.878257 592.802319 702.982747 1059.063393 1643.213672 2167.456334 2538.904267 2778.483608 2907.924844 2950.598835 2994.545516 3185.777137 3534.917136 3917.294874 4245.543961 4490.493009 4627.683656 4682.738705 4801.249402 5120.487481 5470.240096 5653.383186 26135.011488 26259.445551 26420.994716 26409.531235 25916.058152 24790.625990 23283.659975 21686.764523 20225.653939 18803.245379 17297.069857 15628.894845 13866.090395 12070.256626 10312.295762 8782.379777 7420.350021 6218.347334 5243.255544 4433.269255 3660.160921 2911.016062 2293.617198 1850.927927 1504.561281 1178.937317 866.109347 598.464581 408.215074 308.932731 291.211923 345.108643 454.958216 563.924758 632.413436 676.325800 724.871789 818.037978 1012.165798 1342.461587 1769.634888 2192.872334 2539.257534 2789.228763 2952.583711 3062.403184 3179.061238 3368.419639 3645.486146 3970.460747 4295.363080 4588.167952 4835.717771 5054.881484 5292.087361 5563.086903 5800.720237 5917.165346 26062.615681 26128.983453 26151.899078 25970.132360 25401.479918 24386.829461 23052.081853 21587.678883 20120.893158 18643.699931 17095.239561 15442.799627 13715.211450 11972.508984 10297.393902 8776.640149 7428.213436 6258.398538 5270.177708 4423.337241 3660.568789 2970.300024 2385.536628 1918.431224 1536.040941 1199.193450 897.726546 647.139855 467.664490 368.864152 346.365032 387.242582 468.718863 557.824881 632.893940 699.076675 780.741206 912.761815 1130.081765 1444.529586 1824.689105 2207.559307 2537.880812 2790.729612 2971.042713 3108.671866 3251.006011 3442.767175 3699.885318 4005.001594 4326.462026 4637.287238 4925.226307 5196.290497 5464.036760 5721.117769 5921.985654 6012.607378
</DataArray>
<DataArray type="Float64" Name="Velocity" NumberOfComponents="3" format="ascii">