<VTKFile type="PolyData">
<PolyData>
<Piece NumberOfPoints="2064" NumberOfVerts="2064" NumberOfLines="0" NumberOfStrips="0" NumberOfPolys="0">
<PointData>
<DataArray type="Float64" Name="Pressure" format="ascii">
 24078.661293 23963.965662 23785.751313 23576.564626 23361.439197 23120.354395 22808.037637 22399.960867 21889.360710 21269.032045 20528.905186 19688.950690 18801.452851 17918.964844 17073.617208 16282.677949 15565.332322 14932.117752 14366.762939 13837.088899 13319.480812 12804.706686 12291.847510 11783.250959 11282.097108 10791.349034 10313.355065 9849.771536 9401.630136 8969.457574 8553.400975 8153.337989 7768.964571 7399.860588 7045.536542 6705.465598 6379.104892 6065.909362 5765.340560 5476.872181 5199.993466 4934.211273 4679.051361 4434.059354 4198.802012 3972.869960 3755.884386 3547.513475 3347.511852 3155.812805 2972.735264 2799.410660 2638.496205 2494.829426 2374.879222 2284.383072 2226.356866 2200.355324 23922.108772 23792.098213 23574.454457 23324.476147 23097.993220 22867.275200 22556.222896 22158.175293 21678.097327 21104.704309 20385.042650 19537.516496 18645.433571 17776.313352 16950.980928 16164.138086 15450.587133 14844.096644 14317.203101 13813.228577 13308.091074 12799.285235 12289.646837 11782.950552 11283.001288 10793.044528 10315.570030 9852.316002 9404.368498 8972.293467 8556.267164 8156.188739 7771.769682 7402.600802 7048.200111 6708.045827 6381.598427 6068.315037 5767.658631 5479.103810 5202.140357 4936.275362 4681.034438 4435.962427 4200.623965 3974.604511 3757.512966 3548.988577 3348.718575 3156.483162 2972.273432 2796.614739 2631.464668 2481.921953 2356.761668 2263.777001 2205.318220 2179.457673 23680.486346 23506.688849 23184.542704 22810.138051 22563.377516 22380.734379 22064.110041 21661.283349 21247.351136 20827.091087 20140.722269 19235.636569 18316.170114 17492.397046 16737.410093 15934.521925 15194.982603 14657.901858 14238.424065 13783.799613 13293.389393 12792.404902 12286.692936 11782.154744 11283.487582 10794.335340 10317.376218 9854.447364 9406.693941 8974.721310 8558.733699 8158.650499 7774.197757 7404.976558 7050.512015 6710.287150 6383.765639 6070.406708 5769.674696 5481.045063 5204.008078 4938.070966 4682.758996 4437.615767 4202.202705 3976.097487 3758.890456 3550.176715 3349.538528 3156.506824 2970.484247 2790.645636 2616.225892 2451.236814 2311.703096 2214.448198 2156.892328 2132.207934 23398.178559 23166.212676 22681.787387 22054.160824 21718.250641 21720.534536 21438.093293 20943.725183 20590.249833 20492.016280 19790.876103 18751.745320 17827.206674 17146.581445 16544.424225 15680.875660 14895.281743 14503.346568 14224.321262 13762.342594 13283.740355 12787.550628 12284.517418 11781.577023 11283.939298 10795.479581 10318.989479 9856.370310 9408.809833 8976.944835 8561.003652 8160.924093 7776.445957 7407.180306 7052.659287 6712.370761 6385.781661 6072.353375 5771.551655 5482.852870 5205.747830 4939.743992 4684.366487 4439.158139 4203.678261 3977.499337 3760.199245 3551.343142 3350.440597 3156.841583 2969.474031 2786.131031 2601.248127 2397.378946 2225.509337 2131.098471 2080.602282 2059.465810 23132.398561 22858.879122 22251.394347 21301.929835 16538.180866 20941.087508 13686.697356 18352.968167 14032.211359 14148.307269 14164.862692 13858.716350 18072.770325 10982.963650 15592.991612 18165.623327 18978.913503 14174.111677 15891.912969 14190.339359 17758.132164 16286.713800 16788.972329 14327.865123 14510.011033 17645.178243 14420.053333 15683.418615 14872.133645 14311.879406 20323.147456 9988.045918 14256.437215 18006.436681 21455.139409 18837.468810 13072.979171 16925.034617 18681.264540 14258.560714 11575.869409 16651.593997 13881.954749 18424.416600 2069.953843 2014.074295 1980.626665 1965.699519 22907.911446 22613.248346 21956.188271 20887.191849 16136.359603 9831.382248 14486.262706 8823.016487 14760.903363 14176.519698 11163.989513 17632.065277 19422.044779 14433.136943 18173.841473 18684.884403 10892.884801 15315.587347 14335.309240 11996.871145 15291.525952 16310.270480 14546.309387 17393.846797 12840.221745 12731.721770 13119.434543 15340.861418 13934.159054 14864.216111 14660.621086 15079.009404 14106.432967 14696.639646 13869.648078 19233.395069 11924.473594 20126.411047 15682.022057 15557.578416 15474.623162 14675.120202 15459.005653 13996.260992 1899.104586 1883.212441 1866.534076 1858.087415 22714.063719 22422.062119 21734.683283 20679.365822 14816.139971 10531.732122 9951.769100 11313.974726 9241.846247 13567.871577 15377.829213 13989.309938 14483.407522 11985.345464 12759.457000 7931.725087 14089.831778 12717.819045 13042.769843 15064.862491 10014.156465 11910.440641 11520.801021 13275.937307 14321.849481 19213.503510 13254.065842 19653.425307 14373.176821 15059.396650 13911.206526 13130.882580 18687.294728 20300.319187 13962.571995 17169.913546 12340.919070 15532.724504 8733.921073 16544.288253 19563.163584 14767.592511 17092.912597 18665.456986 1760.255127 1755.052608 1748.088498 1744.121143 22515.957245 22319.260707 21937.408922 21316.296449 10316.607603 14400.218121 11710.439626 14245.799754 12214.230459 11199.357038 12184.531982 13922.012108 13262.356841 14958.537498 8701.056044 16600.645015 11930.788560 6006.473038 9558.785446 17300.534700 15546.767223 11592.294693 9354.306073 18632.767975 13317.755495 13574.873113 15730.619913 14677.780693 20738.095483 13921.222557 14578.374669 11798.606452 15508.212469 20050.590372 15057.351799 14002.971856 19929.059226 12839.839441 19806.842236 14739.097979 15028.391091 13992.837969 18669.234117 15168.499720 1635.120941 1633.468476 1630.800389 1629.219422 22236.195753 22108.797392 21906.981859 21612.027214 12025.525223 12107.713134 10231.101568 12889.702544 14302.031219 16902.436761 12501.741989 12632.980252 11217.062231 14264.267046 13442.007963 14873.198563 14103.082834 13353.520674 13320.990751 20280.435641 9909.157339 13078.514341 14136.841340 11203.389032 13677.476237 13563.431361 9468.601845 16484.364170 8872.861429 13832.575093 19537.648274 2231.346719 12138.117012 12132.606389 15168.308102 8750.363465 13456.923000 17201.444106 11972.472357 9323.942633 13193.218396 3742.894801 9545.804195 11119.462392 1518.030380 1517.694071 1516.836014 1516.359205 21842.845412 21729.887910 21487.479064 21118.079085 6214.468563 14683.223253 5786.765404 6145.729617 5865.779913 6254.481331 14178.822794 5963.187592 11154.496333 5479.641310 12745.321765 4191.346499 11564.718062 13695.187738 5336.483765 4363.920034 14826.137539 13421.297131 9723.221249 16793.393695 14149.635361 12407.050405 13001.178327 17295.020307 10547.482365 13192.637063 5545.859328 12250.551386 12408.636875 12757.666239 19695.817497 18963.915764 12638.188439 12218.461109 17469.983205 13469.196879 13533.930407 13764.833347 11881.188581 16074.675614 1406.818282 1406.992320 1406.883030 1406.882847 21365.005428 21266.410734 21079.153974 20914.564223 5154.963934 13636.198534 2741.318700 4199.000066 10015.808026 7372.000145 6380.689025 5934.658487 5954.544034 4887.044195 6192.853678 5815.896265 6245.988975 9307.018994 5349.277219 5143.064977 5708.107653 9602.028010 6811.846837 6303.492779 14157.007981 12285.978498 12161.129548 13815.853989 14282.735798 15123.406759 12706.023785 11909.331244 9005.269387 11640.481651 17471.748538 16300.755891 15076.464581 12477.788876 14559.871582 11458.321619 18011.948470 17244.753706 14282.316513 11032.234485 1300.529228 1300.899526 1301.093647 1301.289228 20841.797217 20757.239485 20656.615490 20677.760457 2783.941630 5213.137312 2349.013926 6095.154811 2121.970351 2958.247624 15396.989221 4004.087941 5699.484733 13297.928473 5593.341151 4549.225609 5748.974752 9008.805165 5712.950039 2822.992817 5828.912493 5223.189038 2788.027418 5268.616944 11767.859103 3343.103016 6472.375570 5521.905641 14238.541303 18108.876591 6210.939258 19420.270774 14156.562101 18621.516350 8884.527979 14226.404220 13203.881363 8797.869411 20718.792971 5724.715769 10747.695557 13791.760450 12367.112630 8938.966591 1198.671698 1199.111418 1199.422920 1199.693440 20312.942610 20202.961528 19960.058605 19707.266912 2895.250192 5242.144431 6226.682570 1909.128418 2027.853081 7292.319473 6782.340563 2955.624643 3277.761586 5835.188975 6168.319070 5362.367708 6202.399967 5157.564511 5269.426580 7457.646414 5161.312376 4450.546520 13752.506359 9829.393528 6136.745689 5923.494232 8281.134448 3522.190367 6065.989926 14691.648229 17194.624814 6416.016418 13425.768929 13760.825349 16006.481069 10658.281222 -2349.727074 13526.001124 19037.914068 12181.998455 10670.805404 12778.459016 13238.534608 19260.694483 1100.943703 1101.400943 1101.752348 1102.046839 19817.757253 19717.146721 19521.039449 19314.254891 1856.595066 2718.645295 6255.779431 6058.261682 5468.662648 5815.189121 10188.335213 2665.585266 2963.984867 2791.226969 6248.729145 5091.032613 2361.873252 3787.980736 2785.025858 2759.089174 5818.196297 14785.877450 5168.267910 3171.741909 5341.029844 3048.482146 11879.545910 6352.715168 5738.925091 7532.968462 2702.049547 10436.316666 12686.655670 7357.582119 6339.328303 5535.869953 5414.717206 14276.124247 12987.292664 16742.465380 10070.222028 18214.674179 15658.311607 13097.169682 1007.124473 1007.578025 1007.937227 1008.234479 19347.018081 19245.798403 19049.333938 18884.550825 9252.469178 2503.773715 7462.786626 9910.319811 9855.230921 7360.178657 14781.521817 8640.841988 4410.913349 7851.483358 8040.553685 5858.240628 5615.212365 2505.274573 5548.108359 5258.760101 2722.910027 6555.482469 4333.163717 5694.511956 2587.534278 2230.943856 2875.959396 8609.433006 12540.872085 13625.288214 2681.307180 14919.090473 2423.386378 5443.583316 5993.896887 5330.536330 8582.824743 5469.799819 9746.168861 6872.639652 11380.194854 15469.398888 14381.507744 26665.722408 917.030186 917.471537 917.825378 918.116718 18877.675398 18765.247464 18521.634128 18312.365044 6486.778047 2773.746915 8913.858343 13121.682925 19796.698731 12821.730947 12236.737826 14153.197103 5847.800860 6674.584776 15494.847954 4100.930525 1859.716257 10145.730970 6080.240079 9941.904186 5565.950793 13310.757283 8699.341000 2686.314983 12462.999846 1992.639457 2353.365542 2173.980783 10846.262998 3037.598288 3895.803007 10557.849825 5554.206922 4704.988071 2810.486479 4517.318516 5825.706820 6072.157619 4750.593747 6490.675015 5930.018613 5424.630391 5082.572143 13705.577345 830.495481 830.921385 831.264613 831.546614 18398.162051 18299.789125 18105.737634 17943.651478 10804.023976 9844.464853 12669.675538 10132.786890 5418.248573 15528.234642 5509.886942 21232.765615 12891.129229 13245.114223 7191.223659 2725.796149 12164.435308 10993.389481 12838.760416 6662.547047 13028.943399 13590.537295 7669.561804 14238.097230 13534.891706 8189.087962 6270.476310 8087.895900 11971.380894 5135.902161 5721.083866 5982.554978 7286.478077 4335.231385 1926.148825 7938.777790 7043.509975 6377.391753 9103.155151 15177.369826 6137.605770 5749.160127 13883.543363 14340.100892 747.365585 747.774978 748.105634 748.377056 17899.502555 17805.496388 17580.153399 17334.224611 2171.711846 7246.111193 6014.833719 13646.383532 8296.732864 5665.793883 13351.248761 12159.918779 11905.407011 4358.951847 5528.954601 8375.902681 11498.135322 16613.104919 15364.239306 8684.711610 13784.648541 22986.009971 6115.413273 12094.450638 2563.771484 13102.067020 16323.635484 10494.886667 12730.784265 12251.685431 6093.142321 12620.381202 2537.754178 10061.919218 3411.549720 7604.037711 6736.208780 8282.596149 10712.465745 8671.092853 5639.296139 5425.363959 7063.387593 5563.627606 667.492870 667.885583 668.203072 668.463581 17392.273014 17314.139560 17163.405227 16974.599839 14183.725736 5993.572503 16003.131694 21631.902553 5700.412051 14484.638488 12885.713807 6476.587748 5983.125264 17832.955454 12915.108863 11499.715209 10159.653934 1966.492334 2706.090090 9419.633869 13767.176099 14031.787680 16710.034735 2162.987858 11981.558577 10081.414431 13669.663246 12530.901776 11543.055125 13157.242632 13341.218686 11825.597491 5383.613690 13865.626487 12983.820805 5765.802802 4013.872935 6626.597086 14158.225951 5155.360494 10482.667468 10452.469016 6210.326419 7082.695133 590.735269 591.111496 591.415783 591.665413 16894.812240 16782.213186 16500.371293 16246.298831 2151.854540 14086.088558 14285.904901 18121.488809 9054.200722 15626.790497 4371.642934 5871.499850 8571.169250 10393.469890 10367.765432 10179.923165 -443.686052 3913.046428 5493.902108 3391.365899 9311.654275 3117.993862 5493.284348 5032.960302 7478.512178 13275.690348 9233.269810 2017.498984 14384.353101 12269.062452 6094.676582 13965.772065 8645.145621 6404.429814 12287.993161 13335.517928 21124.762244 8591.110234 7884.058229 7249.713043 7568.872922 3840.403292 5581.126882 5819.565755 516.955488 517.315564 517.606841 517.845778 16453.475586 16397.212649 16294.777197 16161.321850 14175.940255 6129.363566 6117.665178 11599.254117 17009.321086 9276.360881 6255.450214 13790.581793 17938.251534 19406.991813 20557.209588 14207.249855 2869.585833 13479.214611 14362.132713 7602.470909 13716.969254 20734.198752 11399.804428 2571.001951 5085.969385 13145.624961 17535.236672 4850.006108 15462.570055 13917.762545 10950.255395 16476.161612 20208.955808 14211.565657 20386.722870 6583.882554 12556.121674 13719.779844 22911.731150 6368.897395 9620.996458 9221.383931 5159.161594 4745.568751 446.020580 446.364892 446.643438 446.871922 16043.708698 16026.458613 15975.371276 15837.594174 17553.060571 7395.604705 9985.868640 14661.135454 12469.983804 14206.148305 5197.427438 15041.662167 16325.045449 9841.350271 14525.322088 5821.545254 14172.200343 7776.439389 16035.326785 8987.881454 14152.010472 9534.471474 12939.634111 16166.211538 -2778.323819 6633.031259 17256.006887 8449.088869 12486.955040 9185.029678 11571.923891 11490.971453 15398.544966 13222.175267 12596.824510 12064.321684 2613.718860 13256.513643 19243.209290 10085.425000 13906.000012 5805.415931 18200.036417 4313.943015 377.801680 378.130631 378.396758 378.615051 15633.889890 15654.069449 15769.919613 15811.447200 12493.558649 14467.132140 16167.111388 6417.153130 -1495.164718 14069.606389 2872.314417 15934.098089 14168.847868 -1758.550660 14780.161230 18288.242167 17189.325368 4942.127567 2033.004221 15265.746359 23188.025467 12417.717267 11558.345760 2373.661741 2611.859646 2437.657862 7149.103578 14722.090330 10690.709672 14358.782276 12800.603551 13731.492715 12876.501253 13071.477391 9868.938886 7943.935463 16785.235646 13222.906415 5001.338593 12405.508225 8740.334842 10713.417541 19983.860505 5674.998009 312.173829 312.487826 312.741858 312.950227 15211.398270 15172.723387 15123.762973 15153.979301 11947.360347 17982.943001 14394.455194 8168.453037 7670.400941 14895.236794 14146.733645 12434.201960 11128.649975 18641.477943 13869.846949 9618.887162 20122.917789 13297.718659 7632.024248 13802.535206 20210.495184 15791.101584 19421.646961 14152.603943 14114.031098 2041.537507 5731.393837 6246.113305 18108.420098 13458.781468 19713.205125 19586.757846 14380.696305 14352.632524 13262.205062 7844.882122 18218.751738 20562.115121 10215.082068 14144.305044 9441.962249 14808.266812 9423.429896 11116.602166 249.015860 249.315308 249.557571 249.756285 14837.963916 14738.805272 14465.045150 14272.233781 188.210309 188.495614 188.726436 188.915765 14565.875353 14502.134732 14381.360133 14302.641987 129.643365 129.914933 130.134644 130.314857 14369.241912 14343.595730 14316.302191 14331.779325 73.204837 73.463079 73.672009 73.843379 14212.830391 14217.888751 14282.364454 14343.356799 18.788142 19.033471 19.231955 19.394757 14079.431427 14044.342198 13961.551434 13952.702937 -33.709697 -33.476862 -33.288485 -33.133972 14000.814154 13967.749220 13865.706789 13808.684980 -84.388037 -84.167273 -83.988659 -83.842154 13971.087749 13982.689426 14019.211548 14043.460989 -133.342606 -133.133481 -132.964282 -132.825499 13947.812328 13982.203865 14060.796795 14135.098789 -180.665476 -180.467554 -180.307418 -180.176068 13904.054386 13945.342897 13978.348056 14055.226030 -226.445052 -226.257893 -226.106462 -225.982251 13818.449878 13924.026911 14138.377414 14344.034176 -270.766055 -270.589212 -270.446126 -270.328759 13636.471691 13774.841962 14095.437196 14372.611069 -313.709511 -313.542536 -313.407432 -313.296610 13351.862605 13428.946013 13547.826609 13628.068172 -355.352754 -355.195197 -355.067709 -354.963134 13040.997528 13068.283666 13093.856317 13147.132942 -395.769432 -395.620840 -395.500604 -395.401977 12761.141782 12802.408856 12896.081311 13056.269586 -435.029524 -434.889448 -434.776101 -434.683122 12496.104564 12585.966637 12788.513316 12995.869093 -473.199376 -473.067369 -472.960548 -472.872922 12185.307308 12316.394382 12642.636031 12917.504137 -510.341738 -510.217357 -510.116706 -510.034139 11785.540542 11887.788436 12119.956850 12296.445384 -546.515822 -546.398633 -546.303798 -546.226001 11319.227931 11365.043218 11436.599567 11471.282650 -581.777371 -581.666945 -581.577581 -581.504271 10836.780532 10874.045855 10982.234869 11047.592037 -616.178734 -616.074653 -615.990423 -615.921322 10358.868747 10375.392113 10449.426409 10523.752132 -649.768959 -649.670817 -649.591392 -649.526232 9909.578543 9895.694017 9872.679408 9881.305606 -682.593898 -682.501302 -682.426362 -682.364881 9515.111141 9504.211433 9509.773553 9557.160778 -714.696313 -714.608883 -714.538124 -714.480071 9173.517875 9167.281693 9175.594594 9252.371409 -746.116004 -746.033376 -745.966502 -745.911636 8878.941810 8882.774738 8921.394449 9032.644608 -776.889933 -776.811760 -776.748490 -776.696580 8626.537900 8613.142937 8587.843965 8667.821827 -807.052366 -806.978317 -806.918385 -806.869213 8426.724761 8409.224035 8386.878165 8485.941417 -836.635011 -836.564776 -836.507930 -836.461288 8278.124103 8265.913747 8267.331231 8396.317205 -865.667176 -865.600461 -865.546464 -865.502160 8162.954439 8167.652328 8225.232001 8365.740415 -894.175913 -894.112446 -894.061077 -894.018929 8051.630990 8052.948849 8099.974162 8193.223147 -922.186183 -922.125710 -922.076766 -922.036607 7934.330788 7902.663833 7840.097608 7813.626517 -949.721013 -949.663302 -949.616594 -949.578270 7829.170747 7782.754302 7667.684930 7544.700417 -976.801660 -976.746500 -976.701857 -976.665227 7741.619895 7718.755265 7678.170506 7571.304008 -1003.447774 -1003.394975 -1003.352243 -1003.317181 7646.049581 7643.048712 7646.563175 7548.616320 -1029.677568 -1029.626959 -1029.586001 -1029.552396 7519.271979 7515.902994 7504.655521 7392.763232 -1055.507978 -1055.459410 -1055.420106 -1055.387859 7358.714518 7353.994477 7347.701538 7243.832023 -1080.954831 -1080.908178 -1080.870425 -1080.839452 7169.137617 7150.403140 7098.311902 6972.715389 -1106.033012 -1105.988168 -1105.951881 -1105.922111 6968.120652 6941.086729 6880.125197 6764.122428 -1130.756629 -1130.713509 -1130.678619 -1130.649996 6775.550281 6736.478830 6635.802635 6523.994177 -1155.139175 -1155.097714 -1155.064168 -1155.036651 6611.994191 6583.374998 6516.079444 6431.046718 -1179.193690 -1179.153845 -1179.121609 -1179.095168 6475.789545 6461.228817 6425.475548 6371.553653 -1202.932926 -1202.894674 -1202.863729 -1202.838349 6353.736354 6357.069633 6362.190879 6327.591205 -1226.369504 -1226.332842 -1226.303184 -1226.278863 6229.007491 6237.466171 6256.821176 6252.638435 -1249.516072 -1249.481015 -1249.452657 -1249.429404 6094.236548 6107.947035 6165.219703 6211.987480 -1272.385465 -1272.352045 -1272.325009 -1272.302845 5948.128058 5933.480950 5876.707701 5847.667499 -1294.990859 -1294.959122 -1294.933436 -1294.912387 5810.620027 5799.516917 5773.337655 5774.892608 -1317.345935 -1317.315929 -1317.291612 -1317.271700 5678.596167 5677.381646 5690.733491 5738.238026 -1339.465054 -1339.436804 -1339.413828 -1339.395047 5539.520404 5538.531948 5564.058668 5638.602346 -1361.363452 -1361.336906 -1361.315114 -1361.297373 5393.157149 5372.283103 5331.944140 5375.316209 -1383.057531 -1383.032423 -1383.011322 -1382.994309 5257.344193 5230.693372 5168.848260 5182.741500 -1404.565321 -1404.540847 -1404.519125 -1404.501985 5139.011791 5129.156653 5117.523396 5170.494517 -1425.907407 -1425.881453 -1425.855817 -1425.836375 5023.168121 5035.394516 5094.775781 5232.665266 -1447.108944 -1447.076241 -1447.038640 -1447.011543 4890.688313 4902.918501 4970.736389 5174.203618 -1468.204283 -1468.152006 -1468.082986 -1468.035259 4745.136980 4733.710539 4740.570707 4950.314561 -1489.247820 -1489.145125 -1488.997939 -1488.898290 4615.416812 4581.179715 4508.131564 4689.911138 -1510.339609 -1510.112969 -1509.775518 -1509.548492 4527.335232 4518.889113 4511.542105 4715.073747 -1531.685631 -1531.161796 -1530.365137 -1529.828065 4461.765417 4502.936120 4638.124078 4895.150630 -1553.734926 -1552.519530 -1550.612873 -1549.320731 4374.882637 4430.441833 4569.209741 4755.163453 -1577.506951 -1574.737232 -1570.110518 -1566.978154 4249.628723 4300.760999 4409.415056 4513.153132 -1607.466314 -1599.755811 -1587.635269 -1580.255357 4090.714811 4137.230367 4242.189017 4335.196917 -1659.226912 -1629.305602 -1598.107593 -1583.824602 3907.088094 3941.314423 4013.045175 4078.168923 -1696.107127 -1635.868011 -1588.130401 -1570.333330 3712.505816 3738.086978 3797.357941 3828.143417 -1644.241254 -1587.596986 -1550.738732 -1535.924822 3518.984921 3527.489142 3533.721807 3495.281643 -1529.534220 -1510.528509 -1492.631974 -1483.510163 3342.976520 3349.541658 3360.456502 3283.079277 -1438.256350 -1431.938355 -1423.975446 -1419.381091 3191.619887 3193.695691 3180.270691 3057.819827 -1356.885852 -1354.446106 -1351.064710 -1348.958300 3071.340670 3078.758687 3072.217273 2953.890268 -1278.814309 -1277.825211 -1276.396809 -1275.473396 2980.309135 3013.098503 3074.967198 3000.122027 -1201.940145 -1201.526615 -1200.922030 -1200.523752 2900.668898 2952.637021 3031.335761 2959.069421 -1125.442543 -1125.265340 -1125.007587 -1124.835862 2816.453049 2898.722544 3045.528846 2998.402905 -1048.994598 -1048.916623 -1048.805579 -1048.730868 2708.533377 2797.301384 2970.407635 2988.040032 -972.468826 -972.434021 -972.386300 -972.353832 2579.646306 2640.616446 2745.238718 2817.158711 -895.821782 -895.807759 -895.789597 -895.777081 2460.524941 2511.995379 2603.442557 2722.303626 -819.046532 -819.045824 -819.045672 -819.045506 2365.343450 2422.302663 2547.035186 2712.245428 -742.151694 -742.165275 -742.184206 -742.197167 2285.898689 2336.454587 2448.287463 2605.805485 -665.149596 -665.187261 -665.239501 -665.275080 2215.594215 2255.094309 2340.175259 2461.860166 -588.043846 -588.131825 -588.255886 -588.339505 2152.496184 2180.964148 2240.554208 2327.809662 -510.806026 -511.008541 -511.297894 -511.490321 2096.465734 2116.850634 2162.200603 2223.214270 -433.321317 -433.796503 -434.474362 -434.916252 2047.150150 2059.739116 2089.455020 2131.866511 -355.251762 -356.403974 -358.000371 -359.004232 2005.171959 2012.381286 2030.822005 2057.155258 -275.664639 -278.614280 -282.366200 -284.565607 1970.762653 1973.210548 1975.944782 1973.557062 -191.879171 -200.222726 -208.806786 -213.219018 1943.661670 1945.111409 1950.948998 1939.863225 -94.973122 -123.436048 -140.211102 -147.759332 1921.863953 1918.250046 1906.601945 1879.764327 1854.747678 1846.302851 1849.238919 1841.280670 1838.845634 1837.036473 1835.626563 1834.276857 1832.646200 1830.384921 1827.159707 1822.671484 1816.663428 1808.921700 1799.271934 1787.573825 1773.715343 1757.607460 1739.179805 1718.377363 1695.158134 1669.491597 1641.357782 1610.746764 1577.658406 1542.102235 1504.097331 1463.672190 1420.864494 1375.720780 1328.296004 1278.653002 1226.861859 1172.999217 1117.147513 1059.394193 999.830894 938.552592 875.656705 811.242047 745.407425 678.249333 609.857450 540.304789 469.624841 397.756466 324.405288 248.668424 167.876164 73.070181 -10.415812 -56.754721 -81.477667 -91.912702 1906.586088 1901.566716 1888.899978 1868.520604 1853.456985 1847.462847 1845.179135 1842.071612 1839.263623 1837.281439 1835.725637 1834.260395 1832.532929 1830.188761 1826.892925 1822.345473 1816.288589 1808.507178 1798.825475 1787.101807 1773.222927 1757.098811 1738.658331 1717.845929 1694.619246 1668.947541 1640.810722 1610.198802 1577.111615 1541.558665 1503.559007 1463.141093 1420.342538 1375.209793 1327.797704 1278.168978 1226.393559 1172.547931 1116.714376 1058.980187 999.436867 938.179313 875.304984 810.913023 745.103245 677.974763 609.623709 540.138797 469.591825 398.017118 325.370339 251.473514 176.151783 101.641150 36.502861 -9.635381 -37.164770 -49.108662 1897.799588 1893.290183 1883.610637 1870.665355 1859.026633 1851.333493 1846.323298 1842.583189 1839.702922 1837.542976 1835.844761 1834.268526 1832.451170 1830.031801 1826.672549 1822.072030 1815.971328 1808.154203 1798.443684 1786.696915 1772.799586 1756.660789 1738.208706 1717.387281 1694.153814 1668.477351 1640.337675 1609.724734 1576.638327 1541.087936 1503.092591 1462.680705 1419.889840 1374.766374 1327.365060 1277.748497 1225.986507 1172.155447 1116.337466 1058.619736 999.093668 937.854143 874.998786 810.627332 744.841198 677.743492 609.440042 540.042796 469.679009 398.514927 326.817956 255.126778 184.723920 118.551364 61.576135 18.443253 -9.022488 -21.352002 1894.142363 1890.136161 1881.996285 1871.404142 1861.135101 1853.044124 1847.240470 1843.063388 1839.999595 1837.725147 1835.930951 1834.271252 1832.379708 1829.894339 1826.477263 1821.827184 1815.684922 1807.833577 1798.095263 1786.326119 1772.410880 1756.257811 1737.794438 1716.964211 1693.724088 1668.042894 1639.900278 1609.286113 1576.200159 1540.651872 1502.660256 1462.253693 1419.469696 1374.354575 1326.963003 1277.357482 1225.607723 1171.789963 1115.986230 1058.283578 998.773320 937.550289 874.712184 810.359098 744.593478 677.521055 609.254034 539.919565 469.680514 398.784332 327.673082 257.211384 189.072007 126.107602 72.107100 30.564616 3.540063 -8.778545
</DataArray>
<DataArray type="Float64" Name="Velocity" NumberOfComponents="3" format="ascii">