<VTKFile type="PolyData">
<PolyData>
<Piece NumberOfPoints="2064" NumberOfVerts="2064" NumberOfLines="0" NumberOfStrips="0" NumberOfPolys="0">
<PointData>
<DataArray type="Float64" Name="Pressure" format="ascii">
 3431.694733 3405.150176 3349.008381 3265.475931 3163.611518 3055.956083 2949.878210 2844.480127 2738.037777 2630.623589 2523.667856 2420.075957 2324.251586 2241.372486 2176.333045 2132.653587 2111.442807 2110.445950 2123.281838 2139.127521 2143.293444 2119.216381 2052.169750 1934.236308 1768.863010 1572.371324 1370.500918 1190.877611 1055.044980 973.547926 945.083506 958.764129 997.993820 1044.647135 1082.609993 1100.134096 1090.833022 1053.467574 990.881511 908.528125 812.984999 710.733337 607.334400 507.012264 412.571648 325.544261 246.457095 175.137291 110.998256 53.282632 1.266191 -45.549640 -87.230191 -123.248048 -152.612790 -174.407501 -188.226323 -194.349809 3446.705158 3419.647614 3361.850336 3274.881762 3169.425404 3064.692184 2966.267151 2860.549839 2747.422517 2634.700261 2525.584630 2421.930314 2326.948498 2245.103405 2180.875393 2137.502479 2115.865409 2113.525454 2124.000178 2136.527233 2136.737572 2108.714365 2038.658919 1919.639182 1755.749009 1563.202340 1366.722872 1192.354985 1060.206746 980.104524 950.832844 962.145492 998.310397 1042.014427 1077.731593 1094.009674 1084.484419 1047.738046 986.329510 905.408691 811.294352 710.286507 607.849189 508.181154 414.112556 327.228546 248.117805 176.662129 112.310394 54.308544 1.884582 -45.579003 -88.292269 -125.659822 -156.175792 -178.489176 -192.373051 -198.454165 3482.796561 3456.878746 3402.748988 3321.162214 3222.726944 3140.496980 3073.543378 2951.115594 2793.645503 2651.002239 2531.073059 2424.562284 2329.452068 2248.238755 2184.640751 2141.532291 2119.562177 2116.122350 2124.635508 2134.373608 2131.203351 2099.697106 2026.778898 1906.333337 1743.089464 1553.360604 1361.198944 1191.380569 1062.741529 984.373279 954.987829 964.766233 998.648559 1040.002384 1073.828930 1088.974101 1079.142172 1042.805138 982.307371 902.553316 809.641751 709.710624 608.129700 509.064605 415.357651 328.632758 249.526509 177.962625 113.411081 55.096729 2.141261 -46.356284 -91.197789 -131.998352 -165.590460 -188.685330 -202.249773 -208.019623 3538.919130 3520.100706 3490.995115 3464.770570 3433.415037 3494.244413 3628.018149 3348.156852 2896.302671 2678.483469 2539.490299 2427.998629 2332.018764 2251.122515 2188.023647 2145.162999 2122.942473 2118.589739 2125.443069 2132.814865 2126.801859 2092.443285 2017.342412 1896.122400 1734.014656 1547.265031 1359.164041 1193.322004 1067.548027 990.402593 960.590765 968.685924 1000.220332 1039.164828 1070.998638 1084.850749 1074.506148 1038.353469 978.551783 899.783122 807.939054 708.997937 608.229944 509.757856 416.425262 329.885274 250.815782 179.180167 114.473482 55.913038 2.538523 -46.843247 -94.102258 -143.661218 -184.118120 -206.141944 -217.911497 -222.807223 3609.159356 3604.431600 3631.196639 3698.801804 3742.735556 3766.598022 5001.384857 3423.413094 4194.895353 3125.354605 4274.371293 2657.158125 4563.142937 14319.489521 4710.600765 8113.617022 2659.201882 3372.446752 2748.855734 -1725.148022 3763.575762 4290.556243 4797.110522 7772.782467 2800.733189 5757.337472 3224.301817 5747.173368 2113.017992 2900.672298 2824.747024 4082.597749 2875.368725 1527.150956 2867.884304 6852.870333 2352.412264 15456.474087 7510.347040 2531.166842 12351.422835 1824.701170 39089.609606 26721.468023 -217.908446 -230.666062 -238.366180 -241.783516 3682.741048 3690.351215 3785.818662 4073.627317 4857.344427 3107.213732 2582.525902 9838.127232 -2266.204843 2146.986002 11638.103900 3580.096723 2165.086904 -1741.899841 5926.411847 3623.109150 3099.074225 5181.470486 2699.577705 11333.991121 2051.077304 4062.918779 3020.679716 3443.102427 2757.473818 4417.593502 2174.822723 463.557723 4627.784348 2922.939814 3296.469362 1598.147862 4761.655782 1482.320850 -709.264422 4667.900395 513.494383 1398.027007 8370.045117 4429.177529 616.047813 1838.730626 4085.780835 2731.904803 -254.052627 -257.619206 -261.407275 -263.309132 3750.201623 3754.306363 3867.708417 4294.102524 -6435.313825 6049.346065 15446.935158 3954.074238 8482.273576 13186.146534 17009.773114 -5689.590212 2719.411870 3782.958633 6181.998377 10839.883450 13882.770092 6956.918705 5568.523481 2683.682295 10314.121211 2674.120964 7860.571618 9567.684126 14041.510020 4644.651422 3715.822853 2648.233007 4200.219391 -1118.479838 2485.762454 3377.778210 4353.020183 2006.596934 1706.561701 4054.317879 1310.180793 1866.942561 4094.188015 1424.151532 4298.251409 1451.514785 1311.361795 27788.238868 -282.172428 -283.289873 -284.833804 -285.698982 3810.669396 3791.790893 3838.135583 4204.702486 4490.306109 1062.838573 2122.859356 8007.184191 3664.111930 5413.437836 9506.701406 3036.010310 23876.560303 11643.610707 2833.820179 2459.906114 8080.744684 11639.718682 7530.318202 8249.434361 24741.047501 9731.751391 7185.851369 8359.235463 26497.200613 7702.197790 6637.085217 17648.809168 2743.308421 2933.150121 366.587616 4179.461649 2900.097568 2643.517365 24776.770227 3126.795286 3981.250805 4986.501531 4251.848328 5066.323796 4710.141318 4509.232549 5125.873975 3878.914810 -306.577242 -306.885350 -307.442798 -307.760410 3869.502099 3830.915141 3834.253720 4058.338976 2523.277724 12433.882113 7146.185053 8424.757486 17881.359730 6887.579769 2521.212239 5477.600864 15099.525292 62250.549191 6310.332628 6080.772665 12481.632926 6440.716309 2804.958901 19828.655972 2704.964552 2999.223814 6495.992766 2468.872036 5593.646070 1931.995977 14444.343964 5427.909497 10808.775101 7047.624288 14528.851601 13489.907390 13264.282802 872.222562 4365.041905 7287.046847 3368.325528 5564.981344 7203.962588 16027.720525 11961.462208 7989.431065 24776.770226 4350.572866 -328.639793 -328.652500 -328.798211 -328.865586 3923.288131 3855.668320 3771.053958 3794.231742 11075.554203 3328.897335 18405.523674 8312.577621 9644.028245 11232.490058 7930.253743 7603.769744 9631.454368 15777.852480 8775.708279 130699.484614 11014.804795 42464.723438 14483.357208 18156.349130 4878.433478 9980.604289 13812.754522 15266.366497 4889.334793 2945.650328 3595.783729 6747.854751 2939.604648 9390.741502 3597.543577 34482.236874 9814.608433 19464.716480 5344.697254 8030.523335 22130.976951 11977.961201 -6979.977846 13798.727798 14834.696453 6781.296570 5846.614370 2447.146556 -348.917129 -348.819531 -348.798308 -348.760370 3969.436532 3876.665704 3727.194401 3580.796336 25018.667155 7765.059527 26382.812095 25602.499943 40925.157822 38403.429837 29320.853923 13904.207056 10952.401494 28642.299018 15680.724388 27776.147917 25139.979894 19907.779306 13200.873607 30045.160802 94373.166300 39042.475379 10796.980399 78612.060948 8993.362186 29533.616103 10853.598130 5845.337745 1824.295951 3960.759074 10197.760404 2409.399264 9093.015710 2416.735888 13376.851522 3701.700458 6400.608477 29207.795273 30065.692287 20692.360530 11808.834085 7500.553973 9400.101794 5818.754225 -367.681702 -367.545714 -367.460022 -367.381407 4004.418435 3890.844858 3693.757287 3434.837638 32457.280355 28516.034282 27853.884785 26423.428783 30681.510914 23320.794546 45876.142744 27942.178501 32410.862175 29512.899961 25728.451411 35946.271224 33435.282996 42026.166326 20591.225155 34406.511067 29918.096150 35758.501608 27046.576772 19824.321500 7498.386280 9279.249221 12294.856256 21880.272062 8397.236971 5232.097126 8193.607232 22255.227050 5200.209911 21036.750272 2477.153965 4281.577089 4870.876772 18238.476017 6119.720580 2208.243442 40993.471678 -116.010170 7356.006755 19074.091445 -385.095432 -384.949906 -384.842370 -384.750736 4029.995237 3892.504306 3637.395225 3271.949982 24048.297582 31960.835149 25259.482460 26873.287130 26578.966818 24245.425525 26944.947559 25450.934026 26484.617434 30117.816739 30223.944532 28594.239755 33059.112920 28783.711706 36764.767033 33269.668670 31573.077076 26350.042084 38245.747150 37876.584336 23077.551559 17980.480235 26368.948963 12858.089963 15450.459546 9931.222462 42699.903111 8954.244931 9506.969740 67049.390282 32489.912818 16269.498138 22469.949267 78922.184481 6837.246243 9423.972303 6058.154912 3800.216966 -12057.297649 -2753.491432 -401.273863 -401.130414 -401.018618 -400.925497 4063.033147 3900.135840 3589.598099 3171.680542 22880.762591 26945.379668 19451.989365 25048.431745 28826.437200 22651.735649 16259.926494 24864.969346 30397.098931 21237.001328 28101.331232 18872.349558 29619.507880 29623.844273 27436.761315 29537.272738 27222.287849 26952.454894 27927.364192 27703.293304 33549.257868 27947.300256 39206.306581 16607.558181 22657.568106 42042.652877 28521.419673 44128.445215 10824.552747 17429.510553 12907.090580 12581.815158 37937.552296 10728.853430 21225.095065 84015.160262 63009.801467 17188.630693 11835.968776 16545.977704 -416.311272 -416.174411 -416.065451 -415.975482 4134.816575 3957.599475 3612.668028 3141.462074 29203.541984 25019.051855 17546.660183 23154.845831 34823.017367 22795.119807 13733.327184 28656.358271 22401.362712 33475.030526 16522.011031 21593.460012 26775.362423 21944.812474 32334.126800 26331.346300 29772.010905 27178.943718 29476.287557 31841.840361 28905.901768 29232.853475 31695.782920 32728.356448 43124.746295 41557.215757 28925.492741 38840.012981 33125.743152 31485.696227 32231.903931 49441.680223 13391.308035 37879.180679 17681.770723 17465.346628 10380.825370 75183.952392 56948.453414 60999.469020 -430.290530 -430.161777 -430.058326 -429.973212 4276.645604 4095.866892 3730.226853 3185.123482 25013.023860 20411.201163 15071.098975 15411.248287 12371.919807 30292.004849 14178.225389 19344.709533 37412.719398 32219.808831 5093.845566 28278.934860 22826.072744 22231.594661 30158.508761 23615.991847 25732.061914 28464.169808 31027.252581 22129.311774 30375.175914 25335.663563 25873.976887 29049.657726 37552.392516 30399.095944 27158.685540 32979.096926 30813.497109 29549.060926 27813.943209 31312.670186 43007.954104 34047.073191 30947.646974 38729.366252 33375.176510 43585.209331 10432.398398 30712.673354 -443.286755 -443.166328 -443.069162 -442.989338 4501.630719 4298.051233 3858.001618 3132.366769 26464.261460 17623.158211 19119.476623 12277.946761 28477.939247 13738.336780 7283.435638 18646.707275 5070.063048 14968.090035 21108.629844 18697.228786 16367.785291 16770.783972 11345.037908 17526.520746 24711.071697 25240.960298 22418.602536 8261.317283 28164.708611 26092.930129 19559.133084 26673.084323 22876.045857 29839.859555 28520.944328 26075.264070 31288.029763 34736.478290 30990.407992 34607.731533 38417.502111 39325.279876 35011.839778 44337.166331 61971.643577 46762.058076 61210.871238 51011.005076 -455.368384 -455.255898 -455.164959 -455.090291 4783.629145 4468.285208 3744.196505 2630.378321 10328.767656 15116.924454 12409.872215 22095.716013 15845.742730 24335.045020 20029.731060 10818.366868 12048.526383 20129.990890 23426.320568 20753.646224 10285.353561 19888.250049 25686.816014 12126.149485 16525.270995 9328.425468 9035.929382 14274.797439 22496.562407 22246.524074 9913.786296 32642.195557 26103.207545 17774.858540 31598.082508 19776.561839 26588.342623 32289.508014 24141.611612 69968.215780 24052.418069 18047.750616 36241.632586 4644.317200 53923.813700 39087.574900 15353.453635 43956.403555 -466.597191 -466.491957 -466.406794 -466.336876 5061.527414 4454.287871 2888.448566 1052.928738 16538.838109 13784.495786 3697.802535 13549.690640 13562.482196 7408.806007 14140.874764 5230.365445 13983.604953 6215.610333 12417.722179 18526.341362 18204.839108 28264.342046 10330.436934 13222.039206 15028.448740 11308.909688 16305.862013 15004.016816 11215.522669 18696.026799 22538.297378 6873.125428 71538.012651 95499.075423 19002.565397 6917.639056 18640.155159 25701.074579 26052.595290 19570.786025 16962.122865 10189.473762 27427.068593 33757.221951 15435.908016 41401.009139 35761.421713 56400.669070 -477.027919 -476.929079 -476.849041 -476.783326 5320.004022 4410.557910 1903.748916 -1040.745279 22772.907756 91129.733993 39643.195324 -232.738440 17702.177587 5950.040826 12810.429713 16675.716311 7612.117171 2275.674419 20699.663866 6666.190026 14806.261616 10417.291684 10718.684763 11448.422212 19157.857885 14931.214923 16739.647467 5662.409962 20723.138642 11568.545196 10207.468572 13749.485208 12408.729350 5235.760898 18066.816507 14278.304692 10539.413917 22723.678419 11564.091030 7722.010540 5683.478481 9448.243457 20781.736828 13678.024480 9607.605480 7595.047413 8992.890937 15132.055374 -486.707832 -486.614423 -486.538754 -486.476614 5597.616670 4764.687100 2536.785260 -486.894240 45498.767259 3466.467342 -5167.154082 6832.048571 12446.190613 9941.454990 16390.151193 -3730.033565 7247.556918 6107.733378 4701.122988 10363.169207 38256.230947 13295.070138 469.299409 12384.960899 -204.114306 -109.660074 11360.046068 14624.573818 10497.126827 5308.832124 5003.434856 17288.254883 4156.960140 12593.634541 8690.247278 15397.049427 7386.437137 20164.564952 13306.114940 23022.778554 9071.008947 15325.160664 11409.854998 49982.898411 9977.284947 24579.845940 54343.226976 29989.588508 -495.676328 -495.587329 -495.515212 -495.455977 5863.646138 5350.194081 4136.914787 2305.447721 -11529.226030 15126.393249 9910.564237 18929.797033 6783.059930 11981.536820 9465.974300 12651.669133 6855.075126 7699.306605 3942.967254 43901.645054 10504.659615 18878.990648 12419.422043 -15718.243516 29748.619045 2747.667860 4751.520125 19033.630960 13567.875794 9744.321056 7306.826257 14157.079126 38195.696711 11269.810578 35210.382814 8458.308066 4823.733569 41842.837253 8518.630465 68266.175270 16397.949940 7422.197978 17709.743511 86650.743587 12451.875701 70536.360465 37104.842881 19275.986045 -503.964698 -503.879060 -503.809652 -503.752633 6071.585152 5802.199623 5202.151171 4322.672705 3837.807847 13907.278932 -19173.429407 10479.377787 34982.189961 22890.796686 7015.704862 34306.557309 19370.336506 -2030.303565 -1851.079625 5006.797068 23171.037083 3723.913920 14648.086155 17179.940270 15824.730078 -11169.480190 16969.016082 5107.745477 -5330.001625 2749.194811 6098.615904 2826.901284 10610.361012 13406.214019 -731.743770 11319.320595 10807.263234 4952.881084 15759.448296 11641.515057 15155.340748 11450.247447 21370.847596 14801.429671 19043.806428 96597.516775 11577.382957 80157.088651 -511.596067 -511.512747 -511.445211 -511.389720 6235.885312 6063.755517 5691.566469 5080.525362 2132.263687 11815.380892 36660.372668 36412.678792 56321.845178 21231.506388 -1399.758517 2751.156709 346.342087 19810.752058 17129.869606 2416.209820 21420.907202 -10259.770457 12926.512449 22387.397448 23139.121206 36287.619545 56863.796542 12893.543931 -9384.947238 3194.449759 9727.820827 -5040.413226 -4734.322081 14600.358755 4637.020938 7645.431264 8592.931094 28662.141261 2771.584211 29477.422924 72303.138306 62345.062213 16924.695230 75517.646251 45086.612205 78782.443870 122110.647654 103229.198040 -518.585559 -518.503552 -518.437077 -518.382455 6409.365374 6220.302549 5695.023052 4728.517221 -524.940693 -524.859061 -524.792896 -524.738527 6601.111249 6372.367643 5701.868119 4382.251436 -530.662023 -530.579934 -530.513408 -530.458746 6661.828610 6380.058821 5785.879090 4808.334641 -535.744038 -535.660792 -535.593345 -535.537935 6302.574075 5764.401095 4798.225046 3919.554343 -540.176299 -540.091364 -540.022569 -539.966065 5413.069999 4400.912389 2329.748672 446.698173 -543.944822 -543.857862 -543.787454 -543.729643 4326.547281 2966.606608 -158.914090 -3410.361695 -547.033687 -546.944593 -546.872487 -546.813302 3557.825394 2455.113457 237.436984 -2271.839587 -549.426846 -549.335755 -549.262067 -549.201607 3225.109516 2542.146826 1471.364320 645.386667 -551.110106 -551.017423 -550.942486 -550.881029 3193.234702 2817.701336 2402.265197 2295.866403 -552.073247 -551.979663 -551.904037 -551.842047 3338.742024 3056.221683 2620.428937 2446.279020 -552.312242 -552.218737 -552.143219 -552.081353 3649.969908 3437.848915 3083.011378 2874.652921 -551.831518 -551.739367 -551.664990 -551.604097 4113.791529 4008.053303 3938.165711 3907.830417 -550.646215 -550.556980 -550.485010 -550.426130 4694.222903 4660.766067 4682.306062 4884.687561 -548.784375 -548.699894 -548.631818 -548.576172 5389.884477 5484.607522 5813.515215 6687.081066 -546.289010 -546.211374 -546.148882 -546.097857 6167.507174 6440.875094 7237.176896 8950.172909 -543.219978 -543.151502 -543.096462 -543.051591 6931.089189 7347.777398 8422.887550 10545.122419 -539.655598 -539.598779 -539.553212 -539.516148 7552.702600 8001.672173 9011.517417 10550.963745 -535.693951 -535.651428 -535.617461 -535.589949 7936.298907 8269.373792 8806.476081 9197.331427 -531.453802 -531.428297 -531.408125 -531.391963 8093.734407 8262.691722 8386.395747 8099.552641 -527.075080 -527.069340 -527.065180 -527.062180 8107.955612 8182.568868 8214.563662 7920.023002 -522.718885 -522.735616 -522.749649 -522.761594 8033.087822 8057.319574 7984.399445 7803.363793 -518.566964 -518.608761 -518.643078 -518.671676 7889.335731 7983.999705 8244.248911 8507.135972 -514.820640 -514.889918 -514.946459 -514.993297 7643.606472 7758.822626 8065.392823 8743.359230 -511.699183 -511.798098 -511.878601 -511.945093 7323.925417 7499.459054 8039.016223 9345.748899 -509.437603 -509.567987 -509.673921 -509.761267 6953.883486 7203.486928 8092.007862 10190.825319 -508.283903 -508.447192 -508.579709 -508.688844 6549.776487 6809.767251 7730.260096 10221.085218 -508.495799 -508.692970 -508.852850 -508.984404 6150.708855 6363.060262 7156.440300 9715.056117 -510.336961 -510.568475 -510.756081 -510.910344 5795.942549 5997.664140 6813.144653 9034.615097 -514.072821 -514.338574 -514.553811 -514.730697 5473.085350 5619.841091 6322.201359 7897.308385 -519.966018 -520.265299 -520.507584 -520.706605 5190.559668 5173.279271 5285.836692 6028.038476 -528.271549 -528.603010 -528.871244 -529.091490 5017.932115 4915.911122 4746.441877 5133.236984 -539.231702 -539.593336 -539.885888 -540.126015 4944.610429 4943.391748 5263.771211 6006.688991 -553.070858 -553.459988 -553.774688 -554.032907 4858.272038 4798.698914 4775.512174 5033.833182 -569.990239 -570.403519 -570.737655 -571.011736 4759.280974 4658.189628 4444.292429 4289.138352 -590.162693 -590.596117 -590.946444 -591.233720 4643.855806 4604.525242 4669.657869 4566.970183 -613.727599 -614.176523 -614.539280 -614.836663 4464.562181 4366.516054 4223.246476 3893.509432 -640.785991 -641.245162 -641.616102 -641.920103 4278.888495 4061.362458 3554.344637 2960.670260 -671.395994 -671.859604 -672.234028 -672.540792 4194.989703 3963.931416 3513.467136 3008.402380 -705.568721 -706.030465 -706.403279 -706.708628 4262.359991 3966.734458 3298.497036 2685.506746 -743.264750 -743.717920 -744.083704 -744.383195 4542.444333 4237.060962 3470.535613 2690.802888 -784.391412 -784.829008 -785.182112 -785.471119 5036.041856 4857.311699 4420.081663 3540.202674 -828.801111 -829.215996 -829.550670 -829.824487 5637.840874 5521.802229 5228.421357 4496.049051 -876.291012 -876.676115 -876.986667 -877.240646 6278.697947 6199.067937 5889.083885 5329.519478 -926.604477 -926.953056 -927.234074 -927.463802 6895.957457 6925.556037 6862.004248 6367.907012 -979.434756 -979.740728 -979.987352 -980.188878 7380.771301 7477.754657 7520.224291 7044.615845 -1034.431468 -1034.689837 -1034.898110 -1035.068231 7651.119375 7821.782185 8309.992680 8407.479744 -1091.210550 -1091.417930 -1091.585241 -1091.721863 7693.781345 7727.310185 7700.999487 7550.156396 -1149.368340 -1149.523603 -1149.649243 -1149.751825 7651.638887 7572.889508 7241.295554 7062.441942 -1208.500470 -1208.605551 -1208.691435 -1208.761558 7653.570601 7598.963216 7455.174160 7928.149987 -1268.226121 -1268.287032 -1268.338693 -1268.380806 7721.982339 7855.262829 8319.608801 9408.151845 -1328.217901 -1328.246118 -1328.274207 -1328.296723 7785.274124 8096.420554 9067.342053 10445.189165 -1388.237033 -1388.251615 -1388.274501 -1388.291593 7795.183002 8089.578715 8807.570883 9754.903119 -1448.172442 -1448.203806 -1448.252647 -1448.287629 7811.021455 8140.496566 9088.827836 10170.102469 -1508.080263 -1508.177895 -1508.307427 -1508.399714 7825.913778 8225.462818 9740.326400 11871.430870 -1568.216006 -1568.465909 -1568.778579 -1568.998543 7777.871177 8143.974926 9706.295228 13095.327102 -1629.041965 -1629.609553 -1630.310720 -1630.790772 7642.906146 7927.815006 9129.476511 12371.189445 -1691.166841 -1692.413936 -1693.937822 -1694.930794 7440.675021 7751.987631 9085.031725 13042.615995 -1755.107502 -1757.937342 -1761.236166 -1763.184145 7189.440476 7709.873183 9754.866057 15308.230696 -1821.584911 -1827.816702 -1834.638756 -1838.135178 6815.069209 7433.940667 9561.107133 14140.608953 -1908.597473 -1912.831947 -1919.362875 -1922.944385 6327.735584 6696.727693 7757.069386 9733.140361 -2013.567206 -2014.411210 -2017.947587 -2020.000274 5983.929794 6031.339723 6249.437721 7205.303975 -2116.877704 -2122.220760 -2128.337029 -2130.686708 6039.045623 5954.884765 5802.148783 6271.562536 -2248.161771 -2252.751266 -2256.586144 -2259.027366 6592.556337 6562.640687 6532.413295 6886.482820 -2401.038926 -2404.464338 -2407.303996 -2409.509730 7567.153749 7609.354103 7756.139642 8174.068269 -2578.681371 -2581.852752 -2584.033597 -2585.952802 8856.676771 8976.719512 9303.027478 9830.664653 -2785.742060 -2788.242634 -2789.278212 -2790.480405 10359.844477 10519.359645 10929.070481 11497.381590 -3023.296815 -3023.889147 -3022.353188 -3021.837141 12026.142520 12146.288246 12279.606508 12641.811907 -3287.683843 -3284.181971 -3277.427433 -3273.378879 13853.501484 14091.495705 14503.315856 15058.691023 -3569.402418 -3558.489528 -3541.912037 -3531.180431 15709.951456 16222.939125 17414.274645 18215.327876 -3853.392619 -3830.549167 -3795.796954 -3772.544833 17369.425453 17915.277025 19078.364626 19919.111934 -4145.903110 -4090.065071 -4010.301218 -3964.940990 18783.507508 19225.583164 20035.876876 21057.833052 -4519.977814 -4306.547993 -4139.154966 -4067.610509 20004.095216 20459.313163 21391.463255 22824.076569 -4720.866617 -4312.938752 -4124.231690 -4044.478191 21006.680389 21531.656233 22723.671817 24589.238260 -4325.589346 -4089.016922 -3951.478787 -3887.619142 21758.338023 22317.625642 23498.690809 25409.030471 -3806.174047 -3736.583173 -3661.717197 -3622.149488 22273.717402 22971.342830 24554.008081 26633.254044 -3369.729887 -3342.387011 -3308.407231 -3288.300768 22513.598895 23282.420561 25052.642201 27139.063864 -2952.972845 -2943.733820 -2930.814081 -2922.947196 22485.256388 23215.756355 24772.377556 26487.121771 -2552.533143 -2553.216027 -2552.825656 -2552.789691 22244.142684 22923.712488 24333.160359 25902.846869 -2167.508540 -2177.742129 -2188.980067 -2195.814680 21833.462753 22502.372933 24050.335810 25869.241338 -1790.189774 -1820.481193 -1849.913085 -1865.358122 21276.482774 21824.644159 23015.699874 24302.774988 -1389.099910 -1490.412731 -1547.760243 -1573.860796 20664.011036 21041.315546 21763.804782 22538.310565 22619.101070 22670.595984 23600.584261 24976.086434 26937.563203 28602.928357 27619.873688 26511.111826 26971.747381 26044.111348 23328.064414 21377.251761 20852.369311 20283.459114 18490.104735 16866.100807 15514.391727 13523.366008 11896.198420 9621.987453 7842.101733 5656.243889 3878.490886 3964.050273 3991.341587 3717.465730 3403.659568 3107.841012 2847.851420 2625.017578 2434.219685 2268.285384 2120.007077 1983.012410 1852.060849 1723.058458 1592.945022 1459.533703 1321.342403 1177.433239 1027.264056 870.548892 707.119154 536.770097 359.061202 172.997300 -23.600982 -235.611009 -475.022351 -778.301632 -1060.009843 -1216.657664 -1298.818703 -1333.856150 20122.944587 20373.836628 20815.136583 21393.991391 21700.424315 21876.115621 22616.677672 23675.809679 24798.603387 25630.514331 25190.911313 24460.349447 24170.675450 23442.462853 21702.078178 19877.590711 18916.352688 18062.441609 16655.275531 15264.260250 14001.612004 12542.563143 11081.145933 9457.980246 7957.158479 6448.588149 5179.676222 4553.782290 4141.488944 3775.638564 3431.890752 3124.882293 2859.605996 2633.530981 2440.336217 2272.486069 2122.660636 1984.438660 1852.540273 1722.830909 1592.209251 1458.449385 1320.033811 1175.993717 1025.761337 869.032896 705.637077 535.400955 358.000447 172.772667 -21.543159 -227.106945 -446.567323 -674.185850 -880.307113 -1027.939605 -1116.216177 -1155.103035 19752.632348 19932.295668 20227.953267 20577.273810 20898.225155 21216.765151 21694.500802 22285.660197 22808.268453 23033.890761 22798.198707 22281.130308 21675.654535 20847.710034 19711.403341 18510.083774 17465.331623 16465.315371 15368.813053 14218.252242 13047.080354 11824.003804 10547.389621 9232.643127 7931.265809 6700.075300 5652.416315 4874.108796 4301.970969 3847.118234 3466.365782 3143.915885 2871.630103 2641.784864 2446.135087 2276.464155 2125.214979 1985.874344 1853.112244 1722.754261 1591.662229 1457.575980 1318.947257 1174.780973 1024.489258 867.758772 704.430666 534.395428 357.513989 173.599792 -17.440760 -215.031881 -416.148273 -611.684611 -784.470837 -917.323452 -1002.822782 -1041.994074 19599.458668 19757.639567 19997.757717 20285.644392 20583.916204 20907.413450 21294.989131 21711.577172 22033.267731 22112.361541 21879.915929 21405.220158 20767.316703 19954.962491 18974.210702 17930.016992 16917.356256 15919.317943 14884.066532 13807.223133 12696.794821 11545.924203 10354.066951 9136.959502 7933.015896 6798.905829 5807.413853 5007.176890 4383.604382 3890.866786 3490.256627 3158.549528 2881.688936 2649.132204 2451.531515 2280.297672 2127.762621 1987.377894 1853.791253 1722.803274 1591.247280 1456.833701 1317.986324 1173.685124 1023.321822 866.570175 703.273467 533.358083 356.798819 173.698799 -15.380588 -208.600932 -401.339844 -584.565212 -745.337010 -871.088509 -954.038298 -992.800595
</DataArray>
<DataArray type="Float64" Name="Velocity" NumberOfComponents="3" format="ascii">