<VTKFile type="PolyData">
<PolyData>
<Piece NumberOfPoints="2064" NumberOfVerts="2064" NumberOfLines="0" NumberOfStrips="0" NumberOfPolys="0">
<PointData>
<DataArray type="Float64" Name="Pressure" format="ascii">
 19776.547874 19350.623591 18604.356966 17635.649958 16589.282678 15537.509995 14439.172959 13236.735831 11928.058601 10523.612383 9052.118131 7581.308015 6191.725398 4931.911538 3840.076183 2989.478077 2425.563339 2103.532429 1918.968538 1778.017088 1628.199293 1450.474021 1243.673886 1014.305136 771.361891 523.842624 279.617614 44.991940 -175.364170 -378.293427 -561.938448 -725.497117 -868.981306 -992.998273 -1098.563801 -1186.949655 -1259.564005 -1317.861331 -1363.277471 -1397.185282 -1420.866696 -1435.497427 -1442.141158 -1441.750628 -1435.173598 -1423.162294 -1406.385706 -1385.445385 -1360.897802 -1333.291331 -1303.235423 -1271.532599 -1239.395261 -1208.656028 -1181.645340 -1160.522306 -1146.628347 -1140.231284 19489.082295 19044.012168 18224.792233 17161.325952 16087.072471 15118.158140 14103.930516 12915.418436 11620.491320 10222.560344 8724.602917 7220.903174 5840.026081 4599.564349 3473.598204 2605.971602 2111.108653 1903.649396 1811.485541 1722.816155 1598.604715 1433.658748 1233.915044 1008.952458 769.051748 523.750820 281.159163 47.706422 -171.853814 -374.295575 -557.699696 -721.208095 -864.783227 -988.990202 -1094.810130 -1183.487263 -1256.408724 -1315.013546 -1360.726771 -1394.914213 -1418.853685 -1433.718977 -1440.573416 -1440.370367 -1433.958595 -1422.090900 -1405.434996 -1384.586367 -1360.084194 -1332.434533 -1302.153312 -1269.866224 -1236.569898 -1204.132981 -1175.512176 -1153.503593 -1139.347796 -1132.937739 19109.695379 18604.857373 17613.675434 16255.151276 15051.010141 14388.378637 13621.159162 12330.519654 11102.770655 9734.540969 8153.379604 6514.188124 5170.626362 4055.962926 2726.138074 1748.314640 1436.788094 1541.404189 1652.606947 1650.188163 1562.325324 1414.316300 1223.200630 1003.150796 766.378287 523.237024 282.190945 49.838375 -168.970599 -370.941184 -554.097166 -717.530483 -861.159856 -985.513031 -1091.540197 -1180.460869 -1253.643076 -1312.511673 -1358.481661 -1392.912165 -1417.076943 -1432.147719 -1439.187152 -1439.148770 -1432.881658 -1421.138059 -1404.582246 -1383.798950 -1359.299052 -1331.518727 -1300.806505 -1267.401421 -1231.510193 -1194.588862 -1161.476396 -1137.709849 -1123.423523 -1117.183500 18710.363424 18156.550594 16982.407901 15127.040515 13713.223342 13557.695194 13223.096373 11474.459146 10413.798545 9265.868905 7631.391110 5751.003176 4524.255130 3737.646457 1862.875780 327.776699 524.605727 1293.780730 1561.187175 1601.746612 1536.238670 1399.392243 1214.353639 998.042149 763.838208 522.582953 282.949095 51.636687 -166.440303 -367.935478 -550.825501 -714.158486 -857.813397 -982.283220 -1088.488887 -1177.626184 -1251.044591 -1310.155022 -1356.362452 -1391.019203 -1415.394786 -1430.658634 -1437.872527 -1437.990025 -1431.860597 -1420.236450 -1403.779976 -1383.069107 -1358.595661 -1330.745804 -1299.734764 -1265.413543 -1226.657458 -1178.936238 -1135.701067 -1111.479818 -1098.529685 -1093.039835 18370.885660 17832.763351 16734.108822 15190.977434 14060.780600 14118.835760 13192.612009 14289.000895 13122.797223 12386.703948 12805.882561 14723.552313 12185.899626 13906.012670 13264.108385 13267.403853 12034.449939 11604.291473 10346.321040 13428.402577 12217.569167 11778.989481 12696.224425 9500.147762 11722.058380 10126.983219 11281.493063 9132.539994 9495.749144 8684.551682 8296.510261 7483.505102 6525.182886 7304.872086 4874.390885 6577.539605 4866.665866 6318.924170 2896.492551 3186.714940 2044.013169 2543.966781 700.766497 2000.223395 -1089.591357 -1074.478852 -1065.609174 -1061.608836 18110.453816 17616.342721 16633.745858 15279.159208 14354.101947 13968.013730 14837.968647 14101.680214 13445.378999 14080.068548 13405.951136 13016.395729 13344.398602 11203.331095 11834.483168 13289.556724 11924.833313 14555.407738 10484.357393 12149.684407 12159.310396 13266.235239 9397.268514 11172.523134 7900.026172 9368.307462 11700.004767 9578.104633 10548.603732 9834.067275 9501.325429 8373.479011 8407.894315 6944.299094 7323.656152 5961.392002 5717.848704 5236.522357 4486.081913 3613.241074 3802.851270 3111.589964 1811.889855 2023.375094 -1036.162117 -1031.700212 -1027.130118 -1024.778224 17908.640156 17475.686614 16618.991741 15370.511814 13443.446353 14351.493990 12798.821072 14506.123778 14645.054037 13564.545423 13032.378476 13229.036160 13198.010639 13671.773639 11683.497340 12213.002772 11268.248088 9921.019024 11926.908872 9743.794800 10493.096362 10405.760560 13468.264188 10129.873487 9538.245125 9574.882988 10257.277574 10129.320027 8684.503818 8812.760048 9079.675567 5854.168563 6045.542198 7741.556547 5217.576235 5504.607108 4305.601915 4878.579568 4263.451739 3535.374319 3067.031863 3147.627495 2744.327066 1435.014508 -989.389071 -987.811074 -985.809859 -984.637422 17725.044176 17346.757668 16683.062715 15707.990903 14253.662061 13840.919724 12270.168780 14321.823378 14411.552793 14069.522271 11400.146367 12551.105634 13534.312570 14089.754792 14263.348060 11875.106216 9323.199508 11841.377070 10783.863249 12897.051175 12597.704194 11911.818620 10969.950380 7193.371801 9522.050166 11186.876388 7941.736862 8760.629258 7324.473295 8548.274573 8067.038968 6804.376708 6674.806165 6451.516738 5814.509805 5315.954418 5108.301596 3580.180212 5098.394488 3389.732187 4359.411654 3258.170764 2722.283043 1792.223206 -944.778244 -944.178653 -943.339196 -942.814727 17520.042846 17145.606216 16460.789169 15344.730494 13402.455706 13770.427003 12422.730333 13081.337876 11235.780718 12887.787470 12270.754094 11994.048022 11653.111309 8882.416162 14365.899611 11318.719430 13712.542819 12520.132410 12764.517074 10216.787808 12092.833216 9791.880125 11592.193888 10100.319378 11390.335148 10815.079962 8709.827810 8497.932867 8732.523355 7619.236311 6875.761305 5690.882204 7470.958009 6685.892907 6336.645570 4965.376887 5055.873869 5116.028571 4283.850015 4347.182494 3592.966651 3476.995922 2733.793471 2865.693983 -901.087623 -900.870787 -900.538064 -900.326803 17284.618594 16893.336929 16199.119563 15442.470488 12970.164194 14464.641630 12813.141514 12935.240229 12372.776038 12598.893630 12853.785805 12445.549706 12639.134165 11726.950208 12684.233629 11426.803447 10844.327302 10346.525613 11072.974109 11768.330473 11861.365803 9627.777952 10151.392765 8776.699321 10263.149507 10178.763139 10791.150714 7851.454893 7572.659259 7570.498472 7722.095879 7018.072693 7411.721692 5644.935143 6778.465329 5308.990951 5034.022108 5026.698184 4688.382343 4737.715942 4078.993270 2473.453412 2557.256456 2541.514350 -857.984542 -857.933779 -857.825069 -857.760357 17032.032236 16594.641595 15749.570048 14674.002679 11598.832981 12463.682911 10771.725381 11731.869968 10832.505006 10621.441500 9448.718308 13071.296837 11954.311436 11716.066800 12335.549756 11076.731812 11107.968977 13286.069345 13388.764827 13160.213171 11101.857504 10548.554852 8917.451633 10035.349143 10482.059723 7383.335982 8164.134635 9196.259054 7121.995459 9369.141129 6752.155712 6244.451363 6836.094559 6505.277138 6123.719047 4727.419365 6146.410771 4616.283300 4371.154631 3493.993522 3541.873370 3341.400803 2591.049312 3407.568384 -815.438828 -815.468082 -815.462992 -815.468830 16800.144009 16333.771520 15401.400045 14070.991545 10901.509730 12119.848079 8741.351100 11928.510061 12090.643854 7926.411246 12065.922297 9899.536899 11783.876953 7073.152506 11117.720990 8904.334103 11875.146425 8850.238561 12025.229837 10965.542027 10943.553779 10626.301465 9257.247971 9158.836763 8783.944090 8866.267475 7901.550362 8451.647068 8072.730832 7223.577109 6559.864442 6825.690497 8069.002869 6649.510989 6241.634379 5558.278020 5120.829156 4640.129264 4905.071445 3704.407700 3862.010062 3559.378319 4372.405070 4031.911883 -773.527121 -773.600239 -773.647197 -773.689885 16617.508510 16159.364939 15288.911332 14226.909369 8588.319975 10576.711871 7857.058323 8693.798664 9037.027545 7308.147835 8990.650129 7630.751604 8663.228319 7950.469354 8609.121057 9065.373747 9143.387530 11539.157208 10748.571134 8585.345498 9632.269677 10437.904776 9333.375274 8705.874756 8404.347286 11101.361330 9541.093696 7797.926870 7855.916790 8675.094995 8583.476406 6878.429892 7856.786241 5525.295928 4960.718274 4980.936181 5459.157902 4433.898275 5039.517899 5038.425297 4705.471425 4525.154025 4361.611480 3622.003125 -732.360585 -732.461483 -732.537916 -732.602360 16489.273089 16061.083614 15245.291162 14316.060436 7691.797423 9186.770675 6263.753880 7019.920437 8950.338383 6978.762301 6729.049523 7717.472885 7798.897956 7047.488393 6858.649603 5651.438822 9127.886885 5832.471218 5532.850341 8746.072629 10418.310056 6465.045373 9067.012889 11431.211929 8255.075686 9386.823671 7515.167586 10419.993514 7929.578478 6881.968629 5484.660970 5583.450053 10124.856571 8673.430165 5650.802006 4966.419531 6723.068470 5406.742459 4907.869494 4178.555753 4295.317718 3668.545864 3311.348861 3104.858510 -692.056221 -692.177088 -692.272621 -692.351716 16405.841578 16020.268798 15344.984291 14591.147676 6476.256822 6429.416546 5487.186974 7421.472283 6113.805815 6232.103116 5583.844663 7229.637087 7227.047944 6662.251625 6236.619619 5162.494842 6756.519289 7353.489982 7329.360608 6934.189558 8394.388944 7302.349301 8672.518023 7716.041904 5778.634280 9972.901219 7701.631109 7296.620487 7198.999193 8241.433804 9173.662685 6996.448605 7998.474593 8511.237228 6685.213119 5271.159553 6428.349814 5363.285823 4747.966598 4456.248103 4447.170785 3575.536185 3151.529140 3243.128132 -652.725115 -652.861591 -652.970988 -653.061025 16353.199015 15985.619630 15332.038077 14638.011294 7155.013630 7273.602885 5511.187113 6741.469889 6572.062771 4425.379751 6894.615255 7101.400187 7035.348173 8250.832858 5813.251552 7499.965324 7482.926741 5925.964541 6565.972175 4672.992404 5431.638470 5583.089048 5444.358350 6801.411718 6132.047867 4770.234997 7113.687119 5595.554372 5267.401515 5931.987192 6551.027726 6301.664697 6553.652054 6977.816092 7666.367185 6455.342576 4724.019287 5052.516199 5411.325957 4562.410420 4432.200491 3152.939776 3789.207932 3746.160019 -614.467615 -614.616807 -614.737009 -614.835722 16331.254623 15977.160424 15253.601175 14252.757070 7289.026928 6602.338352 5959.719964 7216.071750 7281.403306 4322.383844 6247.949501 8074.554721 4661.306996 5244.382554 5595.689924 7979.646359 8023.758641 6244.976449 5907.772816 7359.393849 5511.634882 7149.435146 6577.187267 5135.345234 4250.044540 5759.253729 4102.089957 6477.312705 5509.804326 7761.776698 6738.484519 6117.351380 4563.458444 5420.049771 5651.246907 5847.720358 6552.911756 6119.993446 4846.749395 4428.078010 4164.015121 3503.254326 4715.555322 4561.620474 -577.371467 -577.531125 -577.660010 -577.765762 16334.510803 16039.992044 15461.982897 14520.713872 7396.832208 8462.452250 6949.975332 10820.872734 6486.422777 8507.363815 8065.171069 7448.257250 4085.984575 7384.355662 7667.236810 7553.339643 5373.579487 7057.646468 6420.476723 5765.040033 6254.124830 6151.833067 6782.426375 5232.384195 5990.690756 4765.256970 5843.390559 6043.859997 7009.261810 4842.103434 4197.540089 3587.469300 5646.145549 6576.163853 4778.827019 4293.240667 5622.193915 5062.482944 5534.927963 5770.766117 4787.134213 4163.660031 4205.824259 3505.574682 -541.511252 -541.679432 -541.815301 -541.926743 16319.333252 16084.786663 15671.275886 14844.508608 8277.356394 14650.990287 7169.536609 11026.651852 9426.151953 9955.476162 10226.074367 7617.509913 7832.605637 6061.621262 7086.715168 7499.077461 6668.102043 7580.044510 6311.049192 5192.533966 6695.087263 6204.222417 4931.123168 6313.350032 5605.917679 6234.153965 7564.294070 6159.038778 4886.632253 4041.623923 4762.069413 5403.172898 5242.999819 4608.061594 4007.463104 4590.202124 3668.471686 4709.805479 5046.372532 3630.889792 5294.662123 5644.842811 4167.127999 3668.088909 -506.948437 -507.123367 -507.264736 -507.380670 16245.173551 16034.517091 15716.555652 15235.319756 22713.484294 83473.983172 82179.892867 33614.287818 11682.267329 46480.256441 14956.806512 14937.322145 11408.066974 12786.144774 9545.276145 8806.994209 6250.575629 7061.966699 6069.740224 6940.487878 6592.640871 5299.252572 7040.487217 5693.932414 6364.572915 5581.645436 5435.620365 5229.912106 4882.009599 4371.036036 5246.020855 5811.410806 5365.512243 4853.920849 4178.660673 3557.504833 3187.118202 3724.836861 4622.545658 3856.051416 4086.621055 5037.768520 3821.511983 4885.984627 -473.731745 -473.911780 -474.057296 -474.176621 16103.439920 15890.346533 15379.485131 14589.685324 73283.377568 160884.459104 86642.493961 50937.904401 148200.609744 176861.268471 69546.625150 52442.915050 45138.703337 64091.340313 27890.316565 21905.912515 15164.196907 10815.840597 8278.944119 7931.532591 7663.108303 6824.076235 5620.992887 4890.006062 5476.531638 5073.892260 5208.543633 4457.266413 5333.622088 4446.990561 4017.432916 4405.693768 5007.806640 5638.704863 3812.061572 4751.015333 3406.380177 3547.048815 3125.648487 3752.667635 3576.314803 4254.672676 4098.422372 4947.786835 -441.897719 -442.081322 -442.229733 -442.351428 15904.121777 15757.459249 15578.591677 15351.739900 165257.555827 97666.629034 80202.463745 129223.071633 123543.044980 144790.348070 194896.672610 58069.236675 27040.209542 76718.901791 44656.098856 48936.553683 61824.609992 34369.589876 43760.480807 26234.726710 24064.609173 13985.061043 9925.396638 5460.909561 6641.204579 6174.236316 5167.092562 4400.778049 4952.521453 5392.394358 3203.724317 4835.149144 4674.703430 3975.799876 4397.244525 4689.370069 4966.803775 3671.732056 4538.763832 3483.401095 4005.136448 4019.433777 4093.863419 3739.064952 -411.471393 -411.657133 -411.807280 -411.930395 15621.372077 15470.854599 15212.305214 14840.599356 100047.445998 106436.476995 72097.040129 88446.880568 115262.101913 124713.011324 133720.557545 148227.787300 176402.555159 91149.903716 167508.995224 118685.638154 57429.617415 17294.788479 -2546.494444 23156.915430 56596.757959 37003.725287 21656.385503 14900.529808 10088.087261 8395.600891 5986.482494 5379.097251 4755.713700 4571.736448 4365.490442 4572.981557 4694.106363 4538.061539 4113.027358 4585.940375 4426.881317 4786.626844 3781.725291 3989.960809 4109.511040 2238.949336 3874.391182 3257.254338 -382.467048 -382.653606 -382.804419 -382.928078 15277.719393 15095.243757 14830.216176 14549.994071 60191.098422 40015.243550 63255.795425 114409.908712 11812.382410 108968.310247 -19232.903861 226.039675 61279.631371 110827.904083 21909.472421 114232.315129 46787.736507 161219.404225 90068.134759 102641.743990 111363.394968 -16659.223595 21209.479958 71318.458878 26613.640424 14820.628989 8939.616173 6026.462493 4704.882231 4416.570271 3688.729766 4624.880956 3798.052823 3820.908607 3691.115427 4141.806319 3924.896443 3610.182202 4611.410903 4894.999922 3939.623744 3885.679853 4031.560439 3858.608749 -354.889030 -355.075195 -355.225697 -355.349100 14922.263380 14664.650988 14098.610738 13094.148708 -328.732591 -328.917268 -329.066573 -329.188994 14611.938998 14347.130061 13807.689075 12971.547718 -303.984762 -304.166969 -304.314284 -304.435072 14352.958181 14099.063342 13664.994459 13461.361284 -280.625219 -280.804089 -280.948710 -281.067290 14135.343300 13900.960840 13332.408786 12309.997146 -258.627151 -258.801924 -258.943239 -259.059109 13921.376599 13777.821433 13637.818672 13656.491776 -237.958097 -238.128123 -238.265605 -238.378332 13645.243803 13516.511480 13414.862199 13412.925856 -218.580766 -218.745496 -218.878701 -218.987922 13307.899993 13111.895393 12801.652869 12380.883694 -200.453812 -200.612795 -200.741357 -200.846774 12992.418619 12761.984962 12331.046897 12009.903414 -183.532575 -183.685450 -183.809078 -183.910450 12751.279219 12544.801796 12208.108424 12368.123606 -167.769767 -167.916259 -168.034729 -168.131873 12574.185299 12385.251951 11840.199369 10831.912241 -153.116114 -153.256024 -153.369176 -153.461960 12430.389165 12369.223630 12226.256757 11748.814685 -139.520944 -139.654145 -139.761877 -139.850217 12224.675951 12244.636829 12520.060476 13208.289843 -126.932722 -127.059153 -127.161412 -127.245266 11920.513084 11833.059435 11698.836554 11799.039030 -115.299535 -115.419190 -115.515972 -115.595337 11605.696320 11450.761589 10870.738639 9836.128775 -104.569520 -104.682445 -104.773787 -104.848692 11325.552084 11275.080147 11361.798900 11836.522058 -94.691247 -94.797531 -94.883506 -94.954011 11033.950706 10946.592687 10757.226639 10692.716279 -85.614047 -85.713820 -85.794531 -85.860721 10767.819088 10683.654648 10417.645047 9705.433487 -77.288303 -77.381726 -77.457303 -77.519283 10520.988311 10487.400462 10428.609375 10501.715512 -69.665685 -69.752947 -69.823543 -69.881439 10261.683735 10220.504532 10194.885469 10100.639608 -62.699357 -62.780668 -62.846453 -62.900404 10001.233862 9909.063865 9512.842023 8598.103661 -56.344138 -56.419727 -56.480885 -56.531043 9765.142116 9720.001921 9634.232156 9129.131558 -50.556629 -50.626739 -50.683466 -50.729991 9526.562131 9479.261636 9464.118095 9861.043526 -45.295314 -45.360197 -45.412697 -45.455756 9300.635337 9195.625975 8818.227057 7950.381361 -40.520626 -40.580541 -40.629022 -40.668786 9119.961161 9108.344192 8907.974091 8250.515005 -36.194993 -36.250201 -36.294876 -36.331518 8903.632584 9018.306370 9485.408908 9853.527132 -32.282857 -32.333620 -32.374700 -32.408395 8591.769045 8671.991686 9114.408903 10641.409947 -28.750674 -28.797255 -28.834951 -28.865872 8223.256636 8145.206421 7845.485905 7769.487753 -25.566902 -25.609558 -25.644079 -25.672396 7916.134361 7788.553493 7595.032512 7295.064131 -22.701968 -22.740950 -22.772500 -22.798381 7716.200829 7559.120979 7106.240759 6483.291713 -20.128222 -20.163777 -20.192555 -20.216161 7611.846138 7497.218141 7165.096050 6561.860347 -17.819888 -17.852254 -17.878451 -17.899942 7566.523834 7559.860699 7655.218047 7646.968350 -15.752999 -15.782404 -15.806207 -15.825733 7504.114343 7448.002877 7573.033971 8257.388042 -13.905328 -13.931993 -13.953578 -13.971286 7471.722128 7271.817830 6512.262075 5436.562279 -12.256315 -12.280449 -12.299987 -12.316015 7542.460019 7450.676608 7149.151427 6258.677143 -10.786988 -10.808791 -10.826442 -10.840922 7601.815169 7627.120179 7550.120827 7272.556074 -9.479882 -9.499542 -9.515459 -9.528518 7562.302122 7618.039030 7957.390742 8922.462635 -8.318960 -8.336656 -8.350982 -8.362737 7471.977446 7380.415387 6782.170160 5073.478975 -7.289527 -7.305425 -7.318297 -7.328858 7472.360536 7470.153964 7672.453559 8631.878415 -6.378150 -6.392406 -6.403950 -6.413422 7556.060177 7553.691465 7339.878221 6480.158921 -5.572575 -5.585337 -5.595671 -5.604151 7678.000970 7728.004952 7855.392545 7944.520405 -4.861651 -4.873055 -4.882290 -4.889867 7783.304831 7864.335321 7959.955484 7832.177176 -4.235251 -4.245423 -4.253661 -4.260421 7835.825605 7921.596928 8316.032726 9322.163034 -3.684197 -3.693255 -3.700590 -3.706609 7857.938469 7826.836084 7447.353145 5917.032478 -3.200190 -3.208241 -3.214761 -3.220112 7940.847623 8055.745021 8657.523348 9982.528415 -2.775740 -2.782883 -2.788669 -2.793417 7990.549954 8010.831611 7856.238001 7856.815147 -2.404101 -2.410428 -2.415553 -2.419759 8033.052968 8074.154693 8409.056514 8564.458152 -2.079211 -2.084805 -2.089337 -2.093057 8069.987206 7917.431384 7651.748631 8219.942437 -1.795631 -1.800569 -1.804570 -1.807853 8215.678978 8067.970907 7328.635815 5281.830266 -1.548494 -1.552845 -1.556371 -1.559264 8418.446730 8484.825481 9187.603857 10546.743680 -1.333449 -1.337277 -1.340379 -1.342924 8568.480204 8473.482788 8370.502435 8631.715267 -1.146619 -1.149981 -1.152705 -1.154940 8764.155739 8542.419547 7813.319206 5964.473827 -0.984552 -0.987499 -0.989887 -0.991848 9072.887638 8941.646195 8865.581045 8950.481860 -0.844181 -0.846761 -0.848851 -0.850567 9404.364689 9327.492565 9023.617033 8379.824943 -0.722789 -0.725043 -0.726870 -0.728370 9668.253617 9641.745365 9973.296771 10950.270499 -0.617970 -0.619937 -0.621530 -0.622838 9854.675159 9616.478386 8965.275242 8055.323833 -0.527600 -0.529312 -0.530700 -0.531839 10070.504667 9810.083719 9078.026245 7596.052373 -0.449804 -0.451293 -0.452500 -0.453490 10306.566850 10122.059821 9942.717917 10799.881127 -0.382935 -0.384228 -0.385275 -0.386135 10553.300182 10385.203732 9930.927963 8622.036798 -0.325545 -0.326665 -0.327573 -0.328318 10820.182274 10720.280984 10610.320586 10448.997508 -0.276365 -0.277334 -0.278119 -0.278764 11099.688066 11002.189189 10768.411183 10041.105752 -0.234282 -0.235119 -0.235798 -0.236355 11409.008353 11308.624358 11135.613177 11432.628962 -0.198327 -0.199049 -0.199634 -0.200114 11807.753367 11671.072179 11413.634997 11195.733637 -0.167653 -0.168274 -0.168778 -0.169192 12389.583455 12231.158410 11659.914913 9789.017028 -0.141523 -0.142057 -0.142490 -0.142845 13206.638379 13156.074636 12945.013389 12407.020571 -0.119296 -0.119754 -0.120126 -0.120431 14246.291174 14373.134901 14308.711304 12868.392981 -0.100416 -0.100809 -0.101127 -0.101389 15481.235856 15846.974177 16950.868826 18821.973759 -0.084403 -0.084739 -0.085011 -0.085235 16960.983034 17236.603853 17745.935926 18175.757678 -0.070839 -0.071126 -0.071358 -0.071549 18994.097517 19259.802807 19854.794854 20869.830783 -0.059366 -0.059611 -0.059809 -0.059972 21879.450335 22164.519406 22576.601494 23503.681231 -0.049674 -0.049882 -0.050050 -0.050189 25810.275656 26256.414843 26898.637581 27032.677628 -0.041495 -0.041671 -0.041815 -0.041932 30784.642418 31671.308606 33666.868099 36701.505990 -0.034600 -0.034749 -0.034871 -0.034970 36494.618793 37811.878497 41008.717035 47489.053062 -0.028791 -0.028917 -0.029020 -0.029104 42485.268434 44148.447772 47955.835154 55611.468022 -0.023897 -0.024004 -0.024091 -0.024162 48187.000223 49881.458887 53698.605162 61623.766905 -0.019772 -0.019862 -0.019936 -0.019996 53350.676173 54465.830761 55826.420687 55433.994173 -0.016287 -0.016363 -0.016427 -0.016480 58568.141187 59335.458804 58717.821927 51165.984195 -0.013324 -0.013392 -0.013453 -0.013500 64619.490590 66728.323781 70822.918599 75068.484102 -0.010775 -0.010844 -0.010913 -0.010964 70670.426452 74129.925095 82751.233822 103370.066698 -0.008517 -0.008614 -0.008721 -0.008790 74939.652614 78246.921067 85938.345638 102115.708179 -0.006374 -0.006593 -0.006809 -0.006925 76642.392482 78493.323622 81104.722097 83767.626464 -0.003961 -0.004720 -0.005152 -0.005345 76855.605066 77937.266905 79448.951784 80179.278690 84914.964825 97976.160995 114849.697551 107209.466838 106942.496886 116535.494281 92912.582729 50593.390229 42646.181501 49587.763247 43126.236715 29228.724159 17316.046894 12030.454210 8556.175895 6144.886861 4426.790068 3186.693958 2286.882893 1633.643250 1160.586880 819.512127 574.959037 400.708284 277.378074 190.692397 130.194377 88.275582 59.440347 39.749245 26.400400 17.416791 11.414588 7.432997 4.810358 3.094726 1.979913 1.260158 0.798297 0.503612 0.316567 0.198383 0.123984 0.077262 0.047940 0.029492 0.017791 0.010218 0.005065 0.001040 -0.001739 -0.003110 -0.003788 -0.004063 76653.616563 77560.355450 79232.033612 82018.223355 87559.572640 94515.053104 99855.269474 98865.201463 92660.996171 87528.755127 73221.057942 56011.706353 46709.071316 41377.687934 31825.486958 23592.475685 16913.162793 12067.772543 8669.146792 6253.501206 4515.434286 3255.390491 2339.032503 1672.810443 1189.775055 841.105496 590.814732 412.261262 285.729870 196.682296 134.456393 91.284286 61.547646 41.213664 27.410132 18.107597 11.883541 7.748893 5.021528 3.234826 2.072174 1.320477 0.837455 0.528861 0.332742 0.208682 0.130503 0.081367 0.050512 0.031099 0.018799 0.010882 0.005618 0.001982 -0.000484 -0.001975 -0.002778 -0.003105 76471.538843 77340.673405 78963.763678 81333.341719 84262.360236 86922.059124 87845.527252 86078.680715 80932.215709 73237.321481 63341.373080 53220.832914 44369.934755 36454.513573 28947.408020 22112.155408 16409.122662 11999.637809 8728.894162 6336.546359 4590.716710 3316.257702 2386.134388 1708.527927 1216.541379 860.985336 605.460396 422.965133 293.490630 202.264387 138.439573 94.104110 63.528226 42.593913 28.364531 18.762417 12.329347 8.050071 5.223449 3.369182 2.160912 1.378660 0.875336 0.553355 0.348476 0.218726 0.136877 0.085390 0.053040 0.032685 0.019806 0.011559 0.006174 0.002589 0.000214 -0.001285 -0.002132 -0.002485 76440.133886 77299.796659 78815.643155 80821.555690 82907.704356 84327.644008 84156.532514 81666.122823 76642.303938 69389.831855 60684.070450 51657.046564 43121.920720 35242.727360 28011.718131 21607.364627 16254.932606 12026.565304 8814.916041 6426.765403 4667.706849 3377.262884 2432.981416 1743.958683 1243.088381 880.725706 620.031982 433.640640 301.251445 207.862067 142.445214 96.947943 65.531399 43.993924 29.335395 19.430473 12.785499 8.359148 5.431280 3.507883 2.252791 1.439081 0.914788 0.578938 0.364957 0.229275 0.143589 0.089637 0.055714 0.034363 0.020863 0.012244 0.006659 0.002990 0.000582 -0.000945 -0.001820 -0.002188
</DataArray>
<DataArray type="Float64" Name="Velocity" NumberOfComponents="3" format="ascii">