<VTKFile type="PolyData">
<PolyData>
<Piece NumberOfPoints="2064" NumberOfVerts="2064" NumberOfLines="0" NumberOfStrips="0" NumberOfPolys="0">
<PointData>
<DataArray type="Float64" Name="Pressure" format="ascii">
 37970.856069 38083.379669 38277.993851 38543.181324 38835.181702 39058.873643 39075.725798 38785.561039 38175.665752 37297.545139 36226.087292 35027.670997 33755.615652 32450.473991 31141.965148 29849.215505 28584.799827 27355.741397 26166.963019 25024.417962 23931.905888 22882.297209 21852.733909 20813.113019 19735.770980 18600.666373 17397.238766 16124.308651 14788.447143 13401.350703 11976.703371 10526.627334 9058.020235 7569.396318 6050.131363 4485.824283 2870.180165 1231.023258 -299.684917 -1463.849313 -2133.493390 -2412.268342 -2463.315256 -2395.757409 -2265.748750 -2102.048302 -1921.046052 -1733.154455 -1545.464567 -1363.001796 -1189.493091 -1028.038006 -881.847373 -754.853564 -651.437927 -574.961196 -526.726664 -505.625819 38112.655671 38233.661898 38453.150315 38758.308522 39121.036747 39443.835654 39520.770517 39222.336478 38561.203272 37614.030628 36479.427313 35223.139999 33901.435632 32557.136735 31221.609935 29909.529114 28632.640520 27394.908858 26199.845192 25059.240114 23986.539601 22977.230652 21996.159859 21002.671535 19964.663097 18859.993778 17677.341439 16415.804394 15082.684476 13690.824468 12255.282429 10789.124432 9299.809502 7785.465117 6231.879200 4617.190157 2933.813812 1150.222982 -651.990532 -1914.404815 -2438.734469 -2557.794459 -2522.403511 -2417.997562 -2273.599962 -2104.759926 -1922.312410 -1734.333996 -1546.914141 -1364.599886 -1190.773482 -1028.116865 -879.429686 -748.941107 -642.677219 -565.243224 -517.244780 -496.437691 38343.829378 38495.469239 38778.072348 39179.239788 39703.667509 40272.793413 40477.257262 40142.385563 39368.528255 38275.203272 37025.989478 35646.103484 34211.810472 32780.588116 31396.026483 30050.667418 28749.853875 27483.958892 26262.694728 25122.882650 24094.680795 23167.315958 22268.042613 21343.462991 20360.404694 19297.198223 18144.567789 16904.886987 15586.864934 14203.376525 12767.822497 11289.860845 9775.460479 8221.726547 6602.630356 4886.094047 3146.420064 1103.002250 -1532.177428 -3044.992769 -3055.795988 -2786.456786 -2610.507412 -2452.964471 -2287.110235 -2109.882402 -1924.471603 -1735.670585 -1548.115487 -1365.618512 -1190.957381 -1025.859956 -871.350419 -731.218952 -616.864484 -538.442340 -492.380541 -472.932180 38640.366921 38847.672255 39270.007878 39899.880215 40533.028228 41225.928534 41437.396744 41061.070771 40276.043885 39136.597295 37890.676373 36388.154528 34795.268821 33246.890122 31811.878407 30447.030172 29111.538643 27771.617454 26494.820823 25378.214532 24428.582442 23585.078461 22741.639475 21851.257522 20889.481563 19841.112213 18704.387071 17486.022216 16192.287385 14830.311296 13403.357152 11912.027554 10361.114974 8747.506239 7043.636491 5232.070624 3501.591132 1369.903239 -1883.867488 -3663.414954 -3197.383915 -2879.954095 -2658.914626 -2473.033320 -2294.487269 -2112.320316 -1925.366737 -1736.356312 -1548.976825 -1366.547225 -1191.392301 -1024.279696 -862.960283 -696.594618 -563.776130 -491.427437 -452.361171 -436.181759 38942.169422 39210.987204 39792.163124 40513.140088 40781.010073 40710.646038 41134.226104 41209.310320 41174.882918 41022.929502 40578.073582 39915.200354 39056.251718 37987.195105 36628.326240 35248.412879 33921.093453 32685.408795 31497.248271 30338.362153 29134.674845 27933.590790 26828.941102 25868.424809 25047.082836 24277.596051 23511.392597 22713.618720 21860.824688 20939.462189 19941.590312 18863.382563 17704.488663 16467.090205 15151.816578 13757.044958 12284.302311 10738.689103 9118.897222 7415.432176 5652.301900 3709.733822 1271.466218 548.746684 -466.162108 -425.682918 -400.675293 -389.629956 39183.396459 39486.138268 40075.895512 40543.703676 40367.525285 40275.266908 40448.797961 40685.259162 40823.006300 40857.419394 40648.653384 40134.297947 39483.878628 38432.864451 37197.334237 35866.871432 34530.786893 33261.365870 32070.670282 30874.813537 29643.391140 28442.203185 27344.152033 26372.899934 25482.995971 24638.248746 23818.022812 22988.113468 22118.523065 21186.170694 20174.502378 19074.539345 17883.897999 16603.876783 15238.906583 13795.874785 12283.049867 10710.556446 9084.951524 7401.029676 5694.983257 4070.375993 2413.675076 1472.806997 -367.620563 -356.551199 -344.502320 -338.526716 39324.139959 39662.288462 40344.248270 40814.178800 40628.026935 40801.781193 41221.877605 41164.635084 41434.567995 41361.542613 41067.631249 40534.370274 39760.867186 38732.897965 37587.586777 36322.501142 35006.604988 33656.599051 32340.259704 31068.140499 29845.327668 28675.459842 27572.713260 26552.474561 25595.785866 24680.529266 23786.320552 22888.729090 21966.771671 20999.761208 19970.414424 18866.371665 17680.442890 16410.482396 15058.839931 13631.711519 12137.569714 10587.386619 8995.569693 7364.974169 5695.701803 4058.002432 2566.171055 1759.187104 -298.581947 -295.347857 -290.608718 -288.027256 39333.780889 39664.396385 40359.385315 41052.124467 41101.372493 41181.322924 41466.529315 41683.588813 41793.809209 41742.757887 41426.486647 40877.378352 39962.419102 38944.533220 37718.784051 36439.072441 35109.429810 33766.046791 32431.777333 31115.769859 29848.182725 28647.268615 27514.220383 26442.511970 25421.706572 24440.848178 23485.528495 22538.570169 21580.217695 20590.706888 19553.024387 18453.736811 17283.811360 16038.990933 14719.607512 13330.231726 11878.541710 10374.053590 8830.902202 7262.631019 5666.838962 4061.351495 2592.673917 1759.965080 -244.577790 -243.904886 -242.341753 -241.516637 39215.901975 39504.456720 40056.174171 40668.298769 40929.448603 41110.783794 41469.555593 41677.801722 41875.552509 41852.894961 41505.344568 40828.469921 39921.464877 38838.772948 37568.335984 36267.223880 34904.882998 33550.178238 32206.129246 30881.678210 29590.095519 28347.418641 27165.224790 26046.052244 24982.580437 23964.497138 22978.554038 22008.566090 21036.367474 20043.703719 19013.704872 17932.291895 16789.260722 15578.865236 14299.887752 12955.364749 11552.043384 10099.061453 8607.177354 7087.598407 5544.999190 3988.722251 2557.086350 1720.693392 -200.580029 -200.797631 -200.526124 -200.474863 39003.045383 39293.114319 39878.086261 40620.172913 41024.146093 41102.060732 41360.237985 41566.352219 41717.627157 41618.878502 41190.837294 40537.705450 39597.594897 38463.450365 37198.813602 35857.964482 34469.743771 33077.516555 31695.969055 30348.087956 29045.562880 27798.523004 26609.418916 25478.253397 24399.586666 23365.290647 22363.957831 21381.599175 20402.450287 19410.154968 18389.125431 17325.872053 16210.061440 15035.231907 13799.089423 12503.312461 11153.021814 9756.337657 8323.121555 6861.247340 5374.476358 3874.712779 2503.165892 1685.001572 -164.188794 -164.695183 -164.914215 -165.161639 38700.266026 39016.057344 39678.472081 40526.769198 40813.439659 40861.145115 41022.816783 41156.530197 41239.543594 41112.138221 40677.820892 39960.621324 38946.805887 37816.878199 36511.508662 35158.356284 33769.839791 32372.156255 30988.460527 29634.565590 28324.670931 27072.488665 25880.857672 24749.062441 23670.778186 22637.476439 21638.004150 20659.169394 19686.373329 18704.592415 17699.512214 16658.632274 15572.202545 14433.878424 13241.038160 11994.699668 10698.942043 9360.445547 7987.929373 6588.477628 5164.175688 3723.281707 2408.373344 1622.545266 -133.965391 -134.530743 -134.908128 -135.245345 38287.651175 38635.001702 39371.546426 40311.368523 40404.566675 40355.796702 40399.901994 40478.880496 40501.298404 40318.986575 39834.371753 39106.172540 38107.386902 36947.838012 35630.265267 34271.536844 32866.620367 31462.089049 30078.263980 28730.159968 27431.247590 26192.085159 25013.524447 23893.948803 22826.970803 21804.314454 20815.408695 19847.951306 18888.503073 17923.326107 16939.347329 15925.112381 14871.610743 13772.858184 12626.168671 11432.095581 10193.975631 8917.461321 7609.952073 6277.724310 4922.822442 3550.346382 2297.000172 1548.387288 -108.885352 -109.422486 -109.823917 -110.164760 37737.123589 38107.594441 38886.931468 39854.729695 39464.420055 39382.736379 39432.856104 39494.855506 39476.543610 39257.519055 38753.831366 38006.742177 36987.551488 35838.658039 34536.609666 33177.798647 31778.758744 30380.535517 29002.546824 27665.787350 26382.828663 25163.083089 24005.732180 22907.675728 21861.896494 20859.844453 19891.127077 18944.018557 18006.006326 17064.506144 16107.672486 15125.195226 14108.984224 13053.649138 11956.711463 10818.515633 9641.817652 8431.432272 7193.707182 5934.003609 4654.030855 3356.372961 2169.736454 1463.307231 -88.137489 -88.616450 -88.990530 -89.302350 37027.135405 37403.165174 38172.535139 39088.435406 38090.349174 38060.294881 38168.964486 38225.929507 38184.768478 37931.449409 37411.595272 36663.004971 35660.202878 34524.405368 33233.774866 31889.444420 30505.085427 29119.020582 27756.599391 26441.283414 25183.525466 23991.474523 22862.674882 21793.093321 20775.447677 19801.073460 18859.788504 17940.370366 17031.087967 16120.344815 15197.382363 14252.950224 13279.862826 12273.369553 11231.295611 10153.926979 9043.613076 7904.448970 6741.830313 5560.344802 4361.325578 3144.765921 2029.882839 1369.651618 -71.043618 -71.457701 -71.787541 -72.060352 36154.278993 36522.237307 37261.284197 38114.928974 36590.155544 36612.962771 36682.863587 36696.628677 36632.744176 36353.719166 35831.385167 35085.138771 34096.823700 32982.512300 31722.840177 30402.714672 29039.218467 27674.531800 26335.611198 25049.401521 23825.142482 22668.994343 21576.804737 20543.607434 19561.827912 18622.713442 17716.332411 16831.991759 15958.737324 15085.928326 14203.845394 13304.249944 12380.828559 11429.464770 10448.308937 9437.634170 8399.462414 7337.268074 6255.559187 5158.191295 4046.177590 2917.010452 1879.280633 1268.835293 -57.023699 -57.375467 -57.658322 -57.891460 35133.876238 35490.099470 36206.364678 37035.416544 35054.965545 35025.719286 34942.284217 34906.327925 34842.242201 34537.308126 34015.319574 33276.272311 32311.592434 31222.098270 29993.390896 28701.482848 27367.121803 26033.990770 24728.828302 23482.008994 22300.752530 21189.028601 20141.513543 19152.500114 18214.262690 17318.062490 16454.274339 15612.753620 14783.303639 13956.191111 13122.671393 12275.449756 11409.025064 10519.873838 9606.457377 8669.048328 7709.373566 6730.336887 5735.615445 4728.377110 3709.371412 2673.786327 1718.841801 1161.565710 -45.578454 -45.873894 -46.112581 -46.309011 33991.099604 34344.806945 35061.221223 35887.358253 33175.673113 33032.060943 32859.124167 32823.448853 32807.880013 32472.926357 31954.389952 31228.194308 30292.803724 29231.536919 28036.912263 26777.957371 25477.289151 24184.353865 22923.967857 21727.546400 20599.592427 19541.933389 18548.373605 17612.484940 16726.431928 15881.582674 15068.698505 14278.249127 13500.828791 12727.612228 11950.800043 11163.990216 10362.432497 9543.136956 8704.830302 7847.763108 6973.372299 6084.017073 5182.581231 4271.579558 3351.554362 2415.677897 1549.319584 1048.364999 -36.278712 -36.524760 -36.724038 -36.887933 32745.538643 33101.356132 33808.273468 34597.057052 30777.692997 30648.354904 30529.508102 30516.451973 30533.711320 30164.881647 29640.658555 28922.399437 28015.623063 26986.005530 25828.511355 24609.074338 23349.398658 22107.913623 20905.571320 19772.405490 18710.100045 17718.087232 16789.340859 15916.728818 15092.388584 14307.979334 13554.845339 12824.213248 12107.558726 11396.990073 10685.624316 9967.884927 9239.684803 8498.477430 7743.178384 6973.965661 6191.969649 5399.023585 4597.265283 3788.600065 2973.415619 2143.259716 1371.391686 929.656988 -28.757300 -28.960804 -29.125857 -29.261578 31407.044676 31755.016505 32429.616289 33147.684472 28364.579650 28291.238164 28446.639848 28417.919002 28182.467535 27667.506256 27047.734352 26318.061122 25428.551959 24429.738647 23312.086324 22146.154068 20944.377948 19772.170517 18645.946361 17592.575080 16611.716414 15700.206745 14850.075027 14053.614636 13303.099423 12590.672404 11908.404435 11248.370268 10602.937449 9965.119644 9328.908192 8689.506856 8043.449106 7388.599277 6724.046826 6049.905463 5367.033669 4676.802760 3980.699387 3280.087502 2575.236073 1856.585169 1185.251757 805.527876 -22.701992 -22.869291 -23.005097 -23.116770 29984.016877 30313.001662 30966.669273 31641.800323 26753.938295 26476.190120 27008.444821 26522.805322 25560.718802 24914.838655 24212.801023 23432.130939 22528.916410 21560.815648 20481.589832 19374.004762 18237.665426 17142.526089 16102.644451 15141.810378 14258.397987 13445.266145 12692.175648 11990.035635 11330.813072 10706.942976 10111.139801 9536.311841 8975.747500 8423.402886 7874.193866 7324.149743 6770.459361 6211.424741 5646.334281 5075.269233 4498.862979 3918.097059 3333.910248 2747.183451 2158.116466 1556.757157 992.151973 676.992192 -17.849000 -17.985769 -18.096859 -18.188219 28487.564078 28792.308100 29429.403104 30060.998749 22860.630481 22194.451458 22592.841593 22723.476012 22673.756540 22000.750003 21131.297864 20317.164464 19397.651788 18440.247213 17387.196984 16338.299873 15274.233011 14263.969793 13320.793908 12462.881044 11686.642753 10980.708366 10332.830952 9733.131880 9173.820657 8647.991985 8149.139937 7670.973286 7207.586123 6753.682343 6304.806967 5857.470981 5409.183914 4958.388209 4504.332810 4046.902386 3586.421842 3123.482023 2658.558037 2192.173267 1724.705387 1246.571912 794.528039 545.541268 -13.976900 -14.088122 -14.178502 -14.252844 26939.227498 27181.096525 27672.966067 28239.679158 18228.845091 16846.234256 18187.060307 19086.561996 19304.403007 19325.464751 18869.361406 18090.773406 17032.084710 15953.604488 14784.412299 13658.811567 12552.518359 11528.925717 10603.312372 9784.924975 9065.719543 8429.752154 7861.828166 7349.582095 6883.187227 6454.195119 6054.944522 5678.408620 5318.496545 4970.038425 4628.752258 4291.376724 3955.615881 3620.002090 3283.745987 2946.578233 2608.587486 2270.072849 1931.211187 1592.361749 1254.127986 907.547052 577.871102 402.043996 -10.900999 -10.990986 -11.064141 -11.124327 25397.071098 25564.735087 25882.142600 26465.378552 16753.294504 10802.718357 14698.077349 15889.482459 16101.839378 16949.806741 17291.648482 16997.643567 16143.827308 14932.588813 13554.752793 12235.468053 10999.431477 9894.795359 8923.226112 8077.389394 7342.785951 6701.228817 6136.628319 5635.886529 5188.581924 4785.660100 4419.069061 4081.930671 3768.480213 3473.864065 3194.074544 2925.990958 2667.267280 2416.153617 2171.384495 1932.067962 1697.582326 1467.487827 1241.322063 1018.869144 800.118157 577.888818 371.613255 277.174619 -8.468181 -8.540631 -8.599550 -8.648034 23923.385718 24109.681686 24529.676752 25236.514091 8818.128011 5210.807283 4697.024679 8895.330690 9909.722792 12025.456135 13578.788099 14917.743409 15433.404657 15140.626074 14164.955463 12826.429250 11359.127736 9935.306777 8641.971906 7509.563966 6540.497604 5723.233039 5039.041126 4467.430461 3989.174491 3586.223712 3242.378973 2944.616403 2682.721466 2448.513606 2235.453347 2038.394253 1853.355323 1677.306176 1507.988304 1343.757754 1183.446708 1026.250026 871.579368 719.142251 568.888557 418.703745 289.052895 243.365308 -6.552261 -6.610310 -6.657534 -6.696404 22501.311515 22658.978108 22868.873095 23034.169958 -5.049832 -5.096124 -5.133796 -5.164811 21130.759795 21377.651332 22075.327388 22648.011251 -3.876626 -3.913372 -3.943284 -3.967917 19772.047164 19892.303223 19898.184687 19496.342350 -2.964341 -2.993375 -3.017017 -3.036491 18467.306614 18684.076200 19062.297526 18912.950086 -2.257900 -2.280737 -2.299339 -2.314665 17123.590292 17416.834503 18128.461932 18510.825124 -1.713122 -1.731004 -1.745575 -1.757583 15690.900749 15949.468903 16387.500991 16412.452010 -1.294741 -1.308681 -1.320045 -1.329411 14203.377035 14453.616730 14679.135463 14003.521591 -0.974749 -0.985569 -0.994391 -1.001665 12653.777173 13072.027560 14102.217012 14495.925634 -0.731008 -0.739368 -0.746188 -0.751813 10979.085659 11371.094466 12336.478424 13294.961249 -0.546101 -0.552534 -0.557783 -0.562113 9273.304420 9512.903569 9884.041479 10040.660601 -0.406397 -0.411325 -0.415348 -0.418667 7679.876726 7831.011219 8112.831767 8398.070032 -0.301272 -0.305031 -0.308100 -0.310634 6277.606878 6366.634177 6489.544206 6584.821849 -0.222484 -0.225339 -0.227672 -0.229597 5089.674359 5142.137613 5203.395805 5250.076186 -0.163673 -0.165832 -0.167597 -0.169054 4107.500276 4141.386302 4175.946199 4202.616857 -0.119949 -0.121575 -0.122905 -0.124003 3306.048266 3330.011532 3352.177516 3369.678714 -0.087571 -0.088791 -0.089788 -0.090612 2656.236643 2674.302454 2690.024206 2702.663893 -0.063690 -0.064601 -0.065346 -0.065962 2130.978543 2145.115428 2157.008611 2166.677020 -0.046147 -0.046824 -0.047378 -0.047837 1707.052566 1718.332794 1727.658766 1735.285961 -0.033309 -0.033811 -0.034222 -0.034562 1365.239695 1374.327277 1381.776078 1387.886853 -0.023953 -0.024323 -0.024626 -0.024877 1089.872207 1097.226321 1103.229242 1108.161476 -0.017160 -0.017432 -0.017654 -0.017839 868.254090 874.216781 879.074292 883.068490 -0.012247 -0.012446 -0.012609 -0.012744 690.115334 694.952476 698.889384 702.127854 -0.008709 -0.008854 -0.008972 -0.009071 547.146355 551.069312 554.260814 556.886651 -0.006170 -0.006275 -0.006361 -0.006432 432.616577 435.795384 438.381033 440.508646 -0.004355 -0.004431 -0.004493 -0.004544 341.067533 343.639907 345.732185 347.453966 -0.003062 -0.003117 -0.003162 -0.003199 268.067695 270.145664 271.835859 273.226859 -0.002146 -0.002185 -0.002217 -0.002244 210.016909 211.691893 213.054412 214.175828 -0.001498 -0.001526 -0.001549 -0.001568 163.990083 165.336862 166.432528 167.334396 -0.001042 -0.001062 -0.001078 -0.001092 127.611752 128.691592 129.570220 130.293516 -0.000722 -0.000736 -0.000748 -0.000757 98.954891 99.818029 100.520456 101.098774 -0.000499 -0.000508 -0.000517 -0.000523 76.458846 77.146478 77.706189 78.167073 -0.000343 -0.000350 -0.000356 -0.000361 58.862434 59.408320 59.852752 60.218770 -0.000235 -0.000240 -0.000244 -0.000247 45.149167 45.580930 45.932535 46.222154 -0.000161 -0.000164 -0.000167 -0.000169 34.502254 34.842453 35.119564 35.347865 -0.000109 -0.000112 -0.000114 -0.000115 26.267579 26.534582 26.752131 26.931398 -0.000074 -0.000076 -0.000077 -0.000078 19.923193 20.131913 20.302023 20.442228 -0.000050 -0.000051 -0.000052 -0.000053 15.054212 15.216709 15.349188 15.458401 -0.000034 -0.000035 -0.000035 -0.000036 11.332168 11.458161 11.560912 11.645637 -0.000023 -0.000023 -0.000024 -0.000024 8.498087 8.595374 8.674740 8.740198 -0.000015 -0.000016 -0.000016 -0.000016 6.348647 6.423456 6.484505 6.534869 -0.000010 -0.000010 -0.000011 -0.000011 4.724899 4.782185 4.828950 4.867540 -0.000007 -0.000007 -0.000007 -0.000007 3.503126 3.546811 3.582485 3.611931 -0.000004 -0.000005 -0.000005 -0.000005 2.587450 2.620624 2.647725 2.670100 -0.000003 -0.000003 -0.000003 -0.000003 1.903894 1.928982 1.949484 1.966416 -0.000002 -0.000002 -0.000002 -0.000002 1.395630 1.414524 1.429970 1.442730 -0.000001 -0.000001 -0.000001 -0.000001 1.019196 1.033366 1.044954 1.054530 -0.000001 -0.000001 -0.000001 -0.000001 0.741493 0.752077 0.760736 0.767892 -0.000001 -0.000001 -0.000001 -0.000001 0.537431 0.545303 0.551746 0.557073 -0.000000 -0.000000 -0.000000 -0.000000 0.388068 0.393899 0.398674 0.402622 -0.000000 -0.000000 -0.000000 -0.000000 0.279168 0.283470 0.286994 0.289909 -0.000000 -0.000000 -0.000000 -0.000000 0.200079 0.203240 0.205830 0.207973 -0.000000 -0.000000 -0.000000 -0.000000 0.142863 0.145176 0.147072 0.148641 -0.000000 -0.000000 -0.000000 -0.000000 0.101631 0.103316 0.104698 0.105843 -0.000000 -0.000000 -0.000000 -0.000000 0.072031 0.073255 0.074258 0.075090 -0.000000 -0.000000 -0.000000 -0.000000 0.050864 0.051749 0.052475 0.053076 -0.000000 -0.000000 -0.000000 -0.000000 0.035786 0.036422 0.036945 0.037379 -0.000000 -0.000000 -0.000000 -0.000000 0.025085 0.025542 0.025917 0.026228 -0.000000 -0.000000 -0.000000 -0.000000 0.017520 0.017846 0.018114 0.018336 -0.000000 -0.000000 -0.000000 -0.000000 0.012192 0.012424 0.012615 0.012773 -0.000000 -0.000000 -0.000000 -0.000000 0.008453 0.008618 0.008753 0.008865 -0.000000 -0.000000 -0.000000 -0.000000 0.005840 0.005956 0.006052 0.006131 0.000000 -0.000000 0.000000 -0.000000 0.004020 0.004102 0.004169 0.004225 0.000000 0.000000 0.000000 0.000000 0.002758 0.002815 0.002862 0.002901 0.000000 0.000000 0.000000 0.000000 0.001885 0.001925 0.001958 0.001985 0.000000 0.000000 0.000000 0.000000 0.001284 0.001311 0.001334 0.001353 0.000000 0.000000 0.000000 0.000000 0.000871 0.000890 0.000906 0.000919 0.000000 0.000000 0.000000 0.000000 0.000589 0.000602 0.000613 0.000622 0.000000 0.000000 0.000000 0.000000 0.000397 0.000406 0.000414 0.000420 0.000000 0.000000 0.000000 0.000000 0.000267 0.000273 0.000278 0.000282 0.000000 0.000000 0.000000 0.000000 0.000178 0.000183 0.000186 0.000189 0.000000 0.000000 0.000000 0.000000 0.000119 0.000122 0.000124 0.000126 0.000000 0.000000 0.000000 0.000000 0.000079 0.000081 0.000083 0.000084 0.000000 0.000000 0.000000 0.000000 0.000052 0.000054 0.000055 0.000056 0.000000 0.000000 0.000000 0.000000 0.000035 0.000035 0.000036 0.000037 0.000000 0.000000 0.000000 0.000000 0.000023 0.000023 0.000024 0.000024 0.000000 0.000000 0.000000 0.000000 0.000015 0.000015 0.000016 0.000016 0.000000 0.000000 0.000000 0.000000 0.000010 0.000010 0.000010 0.000010 0.000000 0.000000 0.000000 0.000000 0.000006 0.000006 0.000007 0.000007 0.000000 0.000000 0.000000 0.000000 0.000004 0.000004 0.000004 0.000004 0.000000 0.000000 0.000000 0.000000 0.000003 0.000003 0.000003 0.000002 0.000000 0.000000 0.000000 0.000000 0.000002 0.000002 0.000002 0.000001 0.000001 0.000000 0.000000 0.000000 0.000000 0.000000 0.000000 0.000000 0.000000 0.000000 0.000000 0.000000 -0.000000 -0.000000 -0.000000 -0.000000 -0.000000 -0.000000 -0.000000 -0.000000 -0.000000 -0.000000 -0.000000 -0.000000 -0.000000 -0.000000 -0.000000 -0.000000 -0.000000 -0.000000 -0.000000 -0.000000 -0.000000 -0.000000 -0.000000 -0.000000 -0.000000 -0.000000 -0.000000 -0.000000 -0.000000 -0.000000 0.000000 0.000000 0.000000 0.000000 0.000000 0.000000 0.000000 0.000000 0.000000 0.000000 0.000000 0.000000 0.000001 0.000001 0.000001 0.000001 0.000001 0.000000 0.000000 0.000000 0.000000 0.000000 0.000000 0.000000 0.000000 0.000000 0.000000 0.000000 -0.000000 -0.000000 -0.000000 -0.000000 -0.000000 -0.000000 -0.000000 -0.000000 -0.000000 -0.000000 -0.000000 -0.000000 -0.000000 -0.000000 -0.000000 -0.000000 -0.000000 -0.000000 -0.000000 -0.000000 -0.000000 -0.000000 -0.000000 -0.000000 -0.000000 -0.000000 -0.000000 -0.000000 -0.000000 -0.000000 0.000000 0.000000 0.000000 0.000000 0.000000 0.000000 0.000000 0.000000 0.000000 0.000000 0.000000 0.000000 0.000001 0.000001 0.000001 0.000001 0.000000 0.000000 0.000000 0.000000 0.000000 0.000000 0.000000 0.000000 0.000000 0.000000 0.000000 0.000000 -0.000000 -0.000000 -0.000000 -0.000000 -0.000000 -0.000000 -0.000000 -0.000000 -0.000000 -0.000000 -0.000000 -0.000000 -0.000000 -0.000000 -0.000000 -0.000000 -0.000000 -0.000000 -0.000000 -0.000000 -0.000000 -0.000000 -0.000000 -0.000000 -0.000000 -0.000000 -0.000000 -0.000000 -0.000000 -0.000000 0.000000 0.000000 0.000000 0.000000 0.000000 0.000000 0.000000 0.000000 0.000000 0.000000 0.000000 0.000000 0.000001 0.000001 0.000001 0.000001 0.000000 0.000000 0.000000 0.000000 0.000000 0.000000 0.000000 0.000000 0.000000 0.000000 0.000000 0.000000 -0.000000 -0.000000 -0.000000 -0.000000 -0.000000 -0.000000 -0.000000 -0.000000 -0.000000 -0.000000 -0.000000 -0.000000 -0.000000 -0.000000 -0.000000 -0.000000 -0.000000 -0.000000 -0.000000 -0.000000 -0.000000 -0.000000 -0.000000 -0.000000 -0.000000 -0.000000 -0.000000 -0.000000 -0.000000 -0.000000 0.000000 0.000000 0.000000 0.000000 0.000000 0.000000 0.000000 0.000000 0.000000 0.000000 0.000000 0.000000
</DataArray>
<DataArray type="Float64" Name="Velocity" NumberOfComponents="3" format="ascii">