<VTKFile type="PolyData">
<PolyData>
<Piece NumberOfPoints="2064" NumberOfVerts="2064" NumberOfLines="0" NumberOfStrips="0" NumberOfPolys="0">
<PointData>
<DataArray type="Float64" Name="Pressure" format="ascii">
 8069.722808 8065.233448 8056.965867 8045.277870 8030.805260 8013.261773 7993.186127 7975.740366 7966.370021 7964.396032 7965.903173 7967.632058 7967.581409 7964.682261 7958.477146 7948.787492 7935.486568 7918.405921 7897.323534 7871.985327 7842.134225 7807.535719 7767.996279 7723.374322 7673.584803 7618.598944 7558.440599 7493.180577 7422.929938 7347.833064 7268.061006 7183.805442 7095.273415 7002.682880 6906.259060 6806.231515 6702.831829 6596.291814 6486.842133 6374.711243 6260.124604 6143.304110 6024.467776 5903.829788 5781.601290 5657.992801 5533.220425 5407.520936 5281.187578 5154.653210 5028.676360 4904.725312 4785.625069 4676.173717 4582.713209 4511.045020 4464.534864 4443.393909 8066.366025 8061.520654 8051.977512 8038.556364 8023.553422 8005.904164 7981.012181 7958.327537 7950.700689 7953.304892 7958.647692 7963.205776 7964.977943 7963.066553 7957.328999 7947.834290 7934.591946 7917.503039 7896.381568 7870.993140 7841.091956 7806.450019 7766.877335 7722.233877 7672.434837 7617.450808 7557.304507 7492.065339 7421.842888 7346.780107 7267.046740 7182.833326 7094.345940 7001.801745 6905.425329 6805.445749 6702.094201 6595.602196 6486.200160 6374.116348 6259.576023 6142.800827 6024.008339 5903.411848 5781.220477 5657.640047 5532.875612 5407.137978 5280.659916 5153.736826 5026.832232 4900.865343 4778.008171 4663.222945 4564.848543 4490.606827 4443.432718 4422.307338 8062.071732 8056.643068 8044.263762 8024.910256 8008.765117 7995.333281 7954.471031 7913.658513 7915.396361 7931.600754 7945.050833 7955.824312 7961.352914 7961.119341 7956.109620 7946.914918 7933.779333 7916.708345 7895.564593 7870.137917 7840.195414 7805.516193 7765.914084 7721.250858 7671.442187 7616.458305 7556.321054 7491.098697 7420.899576 7345.865416 7266.164828 7181.987344 7093.538186 7001.033809 6904.698228 6804.760046 6701.450104 6594.999637 6485.638843 6373.595782 6259.095501 6142.359324 6023.604232 5903.042211 5780.879391 5657.314554 5532.536093 5406.715253 5279.990814 5152.435073 5023.985146 4894.351747 4763.255146 4634.506577 4522.567764 4443.497765 4396.385522 4375.985131 8057.898598 8053.315790 8039.364004 8012.314438 7994.302614 7991.097078 7920.780341 7853.137651 7875.559577 7899.142477 7922.605881 7948.368215 7958.213851 7959.482171 7955.054854 7946.093339 7933.039921 7915.980715 7894.815614 7869.353685 7839.372826 7804.658455 7765.028004 7720.345062 7670.525913 7615.540595 7555.410242 7490.202119 7420.023450 7345.014835 7265.343828 7181.199016 7092.784806 7000.316975 6904.018985 6804.119001 6700.847515 6594.435492 6485.112918 6373.107667 6258.644603 6141.944810 6023.224845 5902.695807 5780.561809 5657.016918 5532.238335 5406.370507 5279.487240 5151.499388 5021.921767 4889.241272 4748.963830 4586.012763 4443.564713 4364.652195 4322.538084 4304.788482 8053.521694 8054.138078 8052.750879 8042.227126 7339.425424 7821.448999 7170.635203 7078.667810 7042.599263 7932.703262 10695.180799 7474.045115 7058.102552 10226.151000 7185.926148 6983.811355 7491.524778 8650.923493 7104.938863 10808.646836 7074.992435 7270.157403 7582.545924 7928.435783 7296.446681 7065.528011 9268.985210 6860.455053 8751.317163 8151.885888 7588.081365 6311.359843 7705.179865 7370.647829 7360.456365 7158.994036 9648.219890 6989.785856 7135.281615 10462.282714 6937.837869 7193.722978 6280.655078 7210.460277 4301.611105 4253.474703 4225.037917 4212.261937 8044.167847 8053.575341 8079.255831 8098.574698 7406.862321 6773.489001 10892.534314 10123.477943 8858.330895 7985.186753 10792.595481 7321.847938 7974.555815 10381.284387 6978.799146 7759.448760 7040.295229 6739.118178 10128.637009 7047.572208 7280.090645 7372.155669 7700.970860 7560.493781 8949.568803 7121.086917 7870.283150 7352.182955 10461.002046 7014.217158 11146.629289 7417.266879 6421.589824 7189.888644 6878.532824 8049.023313 7340.002161 7673.382956 7073.805925 7415.906734 7049.455147 7425.147839 6837.596463 7073.117291 4140.261009 4126.239096 4111.766760 4104.348882 8021.839612 8034.673971 8070.038663 8094.792415 7117.514910 10809.002593 9424.990118 9815.193684 9447.030450 10243.074906 7490.085747 10443.710813 9349.613109 6149.255256 10565.887138 10511.327571 9366.217248 7557.140706 10996.259233 8018.217011 10270.958321 6437.026158 7082.375887 8951.832951 7388.978304 7086.683829 7432.401240 7864.594142 10135.364589 7066.996245 10154.823661 9440.027024 7483.071845 7515.263926 7497.704593 7172.254253 10595.388966 7352.671434 7746.129327 6958.236596 7660.325789 7692.690138 7292.077149 7143.267305 4002.245158 3997.363516 3991.098549 3987.445779 7983.466810 7989.732790 8010.245791 8030.134610 6629.515605 10588.443203 10613.732114 6817.340125 7221.893730 10435.704174 6760.109585 8451.604552 8224.000666 6987.991758 10463.579606 7527.045022 10779.251667 6858.910248 11400.844841 7646.552542 7315.922457 10553.078877 10766.113379 7461.680406 6410.749692 11080.373305 7261.161485 8519.740489 8015.311666 10933.427568 11211.365168 6772.484190 7222.320142 7819.366849 7009.476812 7249.969507 7746.034122 7910.263651 7904.790203 7687.089600 7282.943316 9030.273021 7765.158215 6613.746154 3872.394051 3870.558598 3867.949520 3866.326391 7936.044922 7928.426320 7906.015127 7887.624563 7657.058487 10256.038945 7389.168160 7018.854355 6431.886697 6951.366066 6805.674976 10324.824709 7330.438118 11157.947477 9701.692499 7341.581738 10196.981740 8035.937244 9131.155559 8012.267386 6725.411587 8624.041123 10818.723301 6621.368963 6973.594405 9945.871349 10320.470386 7512.852128 8582.012223 9532.772491 7067.146325 7427.550395 8065.970526 8752.018129 6855.242359 6099.636272 6419.602855 7277.071899 7385.856260 6050.991950 10979.857039 7246.969968 15153.007735 7459.757607 3746.158616 3745.470743 3744.418362 3743.748237 7892.790311 7878.556390 7843.586802 7805.673275 8723.314512 6848.339464 10279.867936 11176.269667 10443.572796 8852.589627 10396.420044 8200.096877 7263.929201 7303.139170 6862.440785 9996.281210 10508.353090 10414.980946 6051.100497 11717.622132 6447.689467 7152.898697 10988.990080 7568.601179 10399.512514 7004.022042 7472.370815 7350.138412 9971.211971 10765.398261 13558.069809 10599.920115 10284.822500 7287.422256 7442.563374 7633.099317 10898.990911 6907.375475 7146.850962 6722.579678 10268.685543 7698.804109 10242.315580 7603.406459 3621.958966 3621.733899 3621.339905 3621.092848 7861.224348 7846.239703 7810.097616 7770.800576 10765.811706 5366.599446 10747.836199 10174.967181 9755.881881 9744.207405 9927.375040 10102.264495 8575.913629 12822.009867 10192.418231 9794.443897 8178.438268 9148.050709 10401.972007 11892.788196 10876.538889 8406.357939 9085.990620 8402.848411 6633.529556 12117.412532 6088.986945 7191.749670 7335.690758 7367.998041 10798.690223 7715.485955 10207.932957 6491.401944 7691.688670 7522.682954 7394.012860 5903.468663 10800.969925 10525.659951 7250.025334 7543.480906 7510.727188 7209.321249 3499.226820 3499.196942 3499.083322 3499.021091 7842.022606 7831.294664 7800.942590 7773.146892 8214.553123 9663.224796 9788.734317 10087.790193 10616.835348 11057.613773 7305.698398 10253.441432 8486.819709 8278.159195 11420.643866 7100.603745 8157.011378 8798.071762 9682.296674 9985.971610 9160.509673 9605.378997 10126.676362 10421.744823 9292.416381 11740.403933 12179.343165 9555.959634 9101.914445 7239.598368 8009.450987 7491.826365 7710.280392 6789.467365 6448.344323 7255.657884 9751.543442 6910.349556 6850.936235 7888.484749 10083.524111 7446.511189 7223.606980 6524.450082 3377.774590 3377.831054 3377.839175 3377.858654 7829.058725 7832.621596 7843.202111 7853.291320 8694.500941 10196.007547 10171.021830 9863.015511 11056.562694 11298.624982 10789.771686 11194.187103 10096.940469 7811.618661 7035.595317 10433.615082 8888.229373 9434.923872 9981.988940 7599.096944 10127.294686 8724.349795 11239.014301 9356.577791 9767.126185 10212.574734 9202.514140 10662.569431 9009.025890 7409.004298 7310.510873 9794.595960 9331.390137 10086.580018 7348.159504 7695.779022 10526.603415 9614.452718 7660.365685 6620.820431 9652.522019 10844.706126 10012.523422 6981.211475 3257.563852 3257.661392 3257.724572 3257.781764 7807.875778 7823.541644 7868.657625 7899.079112 11889.879561 9950.562855 10187.128129 8575.927526 10555.364269 12034.162722 10469.403965 10814.785552 9860.035767 9190.647249 10097.631079 8757.383162 9232.218114 11906.224059 10509.487029 10308.576861 10174.158064 9753.619053 9444.924752 9521.053347 6922.750158 8344.609541 8378.179994 10617.738576 9074.462678 9001.491113 9416.758315 10595.436605 10777.366189 15972.968795 8948.961203 10378.861886 10406.507084 9680.624765 8149.000458 7779.656088 8192.003641 6945.026546 7559.642082 10238.640313 3138.614302 3138.733743 3138.823796 3138.899940 7767.424695 7778.665584 7806.174305 7813.413918 10412.361031 10320.804854 9765.476710 6069.952501 8974.982890 9582.473501 10573.701253 9662.561018 10744.589091 8917.598107 9996.082891 8753.585579 9886.225623 10570.975199 8939.843690 10720.648447 11069.549348 9776.454132 9141.380858 8624.199883 10487.749828 10356.180792 10825.122920 8694.161803 10556.447367 11507.998098 10552.388884 11225.686635 11676.537646 6696.421088 7826.575313 11504.440080 7688.243699 5913.063976 10139.673120 10618.715900 10841.274179 7206.737969 9648.274420 8346.362963 3020.966847 3021.099845 3021.204701 3021.291699 7711.640350 7712.154438 7710.618123 7688.457259 10126.527860 11251.910018 8480.157237 7829.239733 7800.114265 6895.564419 6071.033140 5087.183972 7906.324024 10615.120023 7896.624899 10500.751174 13696.546483 9328.392798 10135.335848 9007.140907 8964.202877 10784.283173 10348.230395 10340.748664 9930.927943 11836.748274 10651.535840 12665.846034 7407.397667 10447.987829 11784.821559 10112.625601 10280.188195 10610.219784 10583.363152 8838.010632 5638.995364 8575.273480 10269.829581 8734.461609 10584.379709 6924.160333 -1944.785243 10279.750680 2904.668487 2904.811229 2904.925573 2905.019815 7650.975311 7643.039388 7615.963722 7570.434715 6856.431280 10257.315526 10954.896731 7557.779761 12163.968572 10251.731736 12074.462059 5895.458150 7081.301997 10222.022229 7657.514671 10553.054082 9251.715460 10332.861741 6531.697813 9084.446894 10280.663234 6839.242280 9183.830644 10978.931005 11030.057889 10096.072882 9322.158967 8454.775689 10406.410103 10474.586487 10122.408290 9286.768921 10002.198596 12191.966023 11099.198020 8020.890391 9215.951420 10116.349729 8516.056727 8772.809254 9274.071239 8772.013764 10763.614090 10932.586685 2789.766170 2789.916748 2790.038103 2790.137871 7591.958193 7587.256246 7577.373560 7545.259639 10962.358412 4230.925840 8493.647446 10919.784988 7374.131521 10091.261510 8878.593806 10443.586784 6966.137301 10769.743482 6918.059603 8934.210458 10515.640405 8047.739175 6424.067890 5545.171339 11052.409120 8081.531038 10245.871841 12180.544692 7872.123505 10617.570043 7053.916484 10493.281541 10321.058446 7454.864390 10011.456456 6601.699947 10529.523212 6994.922537 10280.909705 10601.716155 6974.727417 9587.246022 6963.419809 12046.178036 10090.341702 8640.219656 8169.340351 8440.462288 2676.304365 2676.461685 2676.588778 2676.693157 7530.922383 7524.215052 7515.686694 7502.423098 7551.738751 9304.579293 7692.487269 6072.782241 9442.970522 8385.038479 7197.426913 11759.907862 9184.022569 7849.313253 10774.295588 10633.389463 10144.462400 11156.944615 11899.051763 9641.057449 10362.360787 11018.169707 -5002.889341 11654.679029 10709.802015 9609.119566 10811.508453 7217.934742 7355.904451 7339.547316 8472.723295 6586.756666 9842.162672 9261.862356 10459.780702 9091.608256 10642.940000 9281.234582 5281.362851 10645.607459 10239.283896 9704.939411 9828.206384 10308.376250 2564.324193 2564.487520 2564.619590 2564.728013 7467.490765 7453.340715 7426.296736 7406.644392 11049.534097 10220.370106 9807.645326 6742.137962 8838.334667 7641.808183 11657.463348 9600.319205 6680.246661 6919.077555 9703.995065 7328.408200 8254.210658 7656.433168 10321.909625 10348.696138 10161.326841 8641.552626 10576.811122 8578.740817 9188.156133 7100.971831 7068.710527 10656.135609 9430.155331 6114.589079 9643.024401 9378.406080 10308.200083 12099.133117 10546.659048 7267.374424 7611.370496 10241.012625 10031.038476 9984.503275 9895.436121 12519.737687 10175.171698 10245.646289 2453.863210 2454.031974 2454.168494 2454.280549 7406.871178 7389.113329 7358.976561 7334.246536 10956.317857 9229.219606 9849.837448 7380.879922 8916.576590 10700.591600 10138.289502 7202.950273 7464.683336 7791.501003 7094.715262 7813.673584 12486.109158 10901.597255 10611.518983 7570.127798 7669.071896 7089.362452 10828.745284 10417.148207 9592.692796 7484.403662 12200.418094 9809.000838 7295.411650 7342.304492 10037.702259 7258.353590 7198.201901 4610.060094 7761.786849 9907.081407 11002.923292 8411.157280 -3965.932280 9071.517136 10392.546931 8921.911880 11545.786636 10488.208491 2344.955462 2345.129181 2345.269730 2345.385085 7352.518783 7327.798151 7279.726018 7238.081915 7776.819668 10136.470644 8779.188917 9736.954444 7261.058380 7316.115664 10012.432378 7411.092259 6969.316166 10228.732801 9572.563566 9312.071879 7227.659852 7012.876231 7284.316298 6275.567278 10334.372648 16784.453623 7077.162981 17711.290135 9992.048997 9956.483103 7528.847033 9902.245508 9881.525082 10372.038362 8558.317820 7395.494802 7591.446178 6781.064233 7140.414835 6857.930845 10677.115759 7554.136092 7109.678342 9234.629172 10696.314003 9776.768797 7796.218221 12237.171995 2237.631653 2237.809898 2237.954119 2238.072483 7309.659756 7278.808925 7206.744892 7130.794910 6811.235936 10746.217986 7716.396421 9554.594320 -3969.778114 7337.273458 10447.726137 6823.905138 9335.572545 10413.968463 7155.971958 7404.380708 7311.769238 11024.611567 6437.437564 20371.840293 8057.015851 10142.525360 6427.753222 10381.094691 10598.676250 2073.600085 6402.149802 6769.563655 7043.911880 10321.967509 6802.183378 11031.435910 6143.951221 7593.447452 7131.020752 7490.183478 7661.549849 10441.349038 12273.957182 7050.860147 9282.930393 7845.693925 7764.576434 11192.392861 2131.919365 2132.101748 2132.249323 2132.370436 7281.895202 7256.628492 7206.772561 7141.994248 7573.563230 7748.191858 10762.267979 5409.278740 5656.372612 7462.986872 9702.204883 7420.691198 6117.407849 7109.751457 9823.580319 10199.766566 7277.314988 7711.596414 8622.512465 6317.355606 7813.814835 7311.848216 7573.423019 11823.147357 10456.283446 11462.243418 9686.908223 3931.317213 8450.511399 5863.388402 7975.401624 7355.818669 7120.478978 9789.287642 7059.626434 9696.091318 7006.990169 8042.307558 7490.951434 6794.342927 6844.588541 9060.292366 9421.799959 10378.740924 2027.843297 2028.029464 2028.180105 2028.303733 7264.310832 7241.157634 7192.266185 7128.146517 1925.425509 1925.615140 1925.768585 1925.894514 7253.276378 7235.443976 7196.326895 7140.210854 1824.685673 1824.878478 1825.034493 1825.162531 7243.355470 7236.117665 7235.432847 7206.835794 1725.641320 1725.837039 1725.995415 1726.125391 7228.101905 7213.327700 7193.323758 7153.839157 1628.308086 1628.506491 1628.667043 1628.798804 7216.929907 7181.996762 7082.518631 6968.676624 1532.699957 1532.900849 1533.063415 1533.196831 7225.775540 7202.272323 7154.717217 7088.829305 1438.829507 1439.032717 1439.197161 1439.332118 7246.072401 7231.912611 7218.381208 7193.839843 1346.708135 1346.913523 1347.079731 1347.216138 7268.906605 7247.196261 7210.715063 7176.144320 1256.346296 1256.553749 1256.721631 1256.859413 7300.156647 7265.809240 7192.529035 7127.260368 1167.753722 1167.963157 1168.132646 1168.271748 7349.492668 7311.411237 7216.878148 7111.577923 1080.939648 1081.151008 1081.322059 1081.462443 7415.993465 7386.273560 7321.625588 7237.641864 995.913018 996.126274 996.298861 996.440509 7487.479605 7464.308339 7428.792192 7382.382670 912.682695 912.897842 913.071961 913.214869 7554.343093 7534.063962 7503.936648 7446.564804 831.257654 831.474712 831.650381 831.794562 7613.077357 7588.853953 7544.870968 7450.706829 751.647175 751.866187 752.043440 752.188924 7668.368642 7629.546962 7553.040428 7429.948117 673.861021 674.082053 674.260944 674.407774 7734.939630 7672.168756 7522.905838 7350.592892 597.909610 598.132749 598.313348 598.461583 7830.230556 7765.723328 7629.540504 7467.896272 523.804176 524.029529 524.211924 524.361634 7950.456221 7881.853425 7746.654858 7592.535290 451.556922 451.784615 451.968906 452.120176 8084.931720 8006.407149 7848.719771 7661.288189 381.181160 381.411336 381.597640 381.750564 8221.384751 8126.391190 7932.671972 7688.009563 312.691442 312.924260 313.112705 313.267389 8348.624741 8228.283413 7961.073184 7622.337144 246.103678 246.339313 246.530040 246.686598 8458.979400 8336.132225 8086.118764 7731.408678 181.435249 181.673887 181.867047 182.025605 8530.759014 8402.295449 8143.560056 7763.581100 118.705101 118.946940 119.142693 119.303382 8547.140619 8414.712895 8168.464976 7780.035065 57.933831 58.179080 58.377595 58.540553 8501.184691 8343.465575 8041.564602 7604.342040 -0.856236 -0.607360 -0.405906 -0.240535 8412.279371 8224.684259 7858.485971 7371.651689 -57.640981 -57.388254 -57.183681 -57.015748 8314.835699 8102.171755 7684.636107 7173.723358 -112.394444 -112.137635 -111.929758 -111.759109 8243.921556 8024.049313 7599.215600 7111.758688 -165.088775 -164.827650 -164.616278 -164.442759 8219.192398 8019.915463 7658.348663 7263.271743 -215.694205 -215.428526 -215.213467 -215.036920 8237.459262 8065.558280 7777.811918 7476.187783 -264.179019 -263.908547 -263.689608 -263.509876 8294.290213 8131.702745 7845.570205 7558.117817 -310.509548 -310.234044 -310.011031 -309.827954 8403.088513 8252.055873 7974.230066 7711.933279 -354.650159 -354.369384 -354.142104 -353.955524 8574.323349 8457.076432 8266.085929 8064.374185 -396.563259 -396.276977 -396.045238 -395.854997 8798.509836 8701.110214 8536.462072 8334.504920 -436.209306 -435.917281 -435.680894 -435.486837 9071.237186 8984.982082 8815.368818 8601.070200 -473.546819 -473.248821 -473.007599 -472.809573 9388.828450 9333.880179 9224.645115 9033.254636 -508.532404 -508.228205 -507.981966 -507.779820 9722.408649 9715.788578 9713.268109 9583.975032 -541.120774 -540.810154 -540.558717 -540.352304 10019.871046 10064.122082 10210.622426 10207.689559 -571.264778 -570.947519 -570.690708 -570.479885 10230.072181 10283.246407 10452.632261 10550.304145 -598.915428 -598.591318 -598.328963 -598.113588 10346.107760 10365.530469 10398.235119 10415.746184 -624.021927 -623.690760 -623.422694 -623.202631 10403.972703 10418.166643 10457.068878 10470.194326 -646.531698 -646.193273 -645.919333 -645.694449 10422.793847 10444.489579 10519.850820 10536.539603 -666.390409 -666.044530 -665.764558 -665.534722 10404.828116 10410.599045 10415.373914 10334.711405 -683.541994 -683.188470 -682.902311 -682.667397 10363.036071 10349.481167 10314.000062 10220.441054 -697.928671 -697.567315 -697.274817 -697.034701 10310.384122 10284.120159 10255.601522 10249.937518 -709.490954 -709.121582 -708.822597 -708.577156 10255.910431 10198.489000 10066.660658 10043.952592 -718.167656 -717.790088 -717.484469 -717.233583 10220.913031 10167.362909 10055.343244 10053.036891 -723.895890 -723.509945 -723.197548 -722.941098 10202.386215 10172.868557 10137.808447 10183.346831 -726.611051 -726.216551 -725.897230 -725.635097 10179.671841 10165.289633 10156.001015 10197.737365 -726.246800 -725.843567 -725.517178 -725.249243 10139.400825 10127.410483 10104.600192 10121.057761 -722.735035 -722.322888 -721.989284 -721.715427 10081.158259 10082.394865 10123.971014 10198.091383 -716.005844 -715.584601 -715.243634 -714.963733 10003.539142 9982.964676 9950.220291 9988.202052 -705.987465 -705.556938 -705.208457 -704.922389 9934.311955 9892.623092 9779.873961 9734.375049 -692.606219 -692.166217 -691.810068 -691.517706 9904.338228 9883.434969 9837.551382 9821.987938 -675.786448 -675.336776 -674.972800 -674.674012 9906.341848 9925.631943 10008.433574 10104.058346 -655.450442 -654.990897 -654.618930 -654.313583 9911.841581 9928.591324 9970.044905 10055.972450 -631.518355 -631.048730 -630.668604 -630.356560 9921.659662 9935.115658 9960.230561 10024.438581 -603.908129 -603.428209 -603.039750 -602.720866 9944.203074 9955.796101 9985.133258 10057.459363 -572.535405 -572.044970 -571.648001 -571.322131 9986.953436 9994.275898 10006.749427 10066.775361 -537.313446 -536.812271 -536.406609 -536.073605 10057.269447 10064.748538 10077.313007 10134.753578 -498.153059 -497.640916 -497.226377 -496.886086 10155.294888 10180.922939 10263.589410 10370.132656 -454.962529 -454.439188 -454.015587 -453.667857 10267.898000 10279.924946 10271.534221 10269.795248 -407.647569 -407.112800 -406.679953 -406.324635 10400.920321 10427.956575 10458.760461 10440.403710 -356.111278 -355.564859 -355.122589 -354.759536 10540.346460 10599.357487 10722.209091 10760.845710 -300.254133 -299.695853 -299.243997 -298.873073 10652.920605 10732.320208 10906.801826 10960.964226 -239.973994 -239.403669 -238.942091 -238.563181 10716.598566 10769.100544 10865.069605 10867.791604 -175.166141 -174.583630 -174.112255 -173.725286 10751.399821 10762.957655 10776.174732 10747.852058 -105.723315 -105.128574 -104.647453 -104.252438 10796.324128 10770.904415 10683.092105 10578.334153 -31.535752 -30.928937 -30.438405 -30.035550 10882.653679 10852.821309 10760.508707 10631.774817 47.508882 48.127164 48.626125 49.036175 11008.491717 11002.068955 10997.743020 10930.325171 131.525844 132.153954 132.658838 133.074424 11145.438257 11144.433732 11165.274734 11136.156886 220.634421 221.268299 221.773011 222.190074 11281.203969 11253.136374 11183.928109 11093.739342 314.960936 315.590789 316.080696 316.489500 11434.100406 11391.197801 11278.274359 11140.881473 414.646385 415.248725 415.688834 416.066165 11614.763695 11583.320886 11505.949157 11403.220723 519.865314 520.383705 520.690403 520.981146 11808.217893 11800.541192 11795.760147 11773.963910 630.872177 631.169907 631.143412 631.217686 11989.298331 11992.562257 12022.510518 12048.833211 748.115987 747.856026 747.019236 746.576007 12150.666203 12144.469118 12134.542030 12100.845472 872.532309 870.851954 868.069412 866.437037 12311.650890 12285.008364 12173.363512 11993.248951 1006.338623 1000.849400 993.463124 989.270084 12499.845003 12508.013320 12512.201518 12459.420233 1155.486735 1138.559724 1120.778914 1111.786381 12698.042697 12761.966549 12917.823886 13116.013953 1339.366850 1279.733224 1244.011278 1228.075402 12861.584089 12967.496425 13240.951972 13639.246880 13781.269999 13549.241391 13031.732311 12446.580714 12173.185069 11891.996019 11605.787089 11515.499518 11464.294650 11424.602634 11294.573370 11115.263155 10922.118885 10715.713183 10498.155958 10270.939875 10035.005512 9790.993161 9539.419458 9280.792131 9015.676765 8744.727791 8468.694135 8188.408259 7904.765604 7618.699738 7331.156976 7043.072949 6755.352548 6468.853925 6184.376653 5902.653814 5624.347570 5350.047644 5080.272128 4815.470053 4556.025179 4302.260543 4054.443310 3812.789442 3577.467513 3348.600402 3126.262129 2910.463416 2701.110479 2497.898148 2300.033516 2105.478923 1908.585419 1691.010968 1507.460581 1406.584056 1352.596402 1329.998565 12957.240742 13057.314370 13289.673010 13615.492010 13751.104924 13515.827417 13084.539138 12647.119121 12326.483389 12063.161811 11841.003157 11687.920461 11561.246249 11435.621875 11287.021508 11112.633609 10919.809946 10713.453232 10495.994277 10268.879279 10033.034245 9789.105737 9537.622081 9279.100628 9014.112252 8743.312465 8467.448073 8187.347376 7903.900637 7618.036014 7330.694725 7042.807942 6755.276908 6468.956986 6184.645781 5903.075156 5624.906688 5350.730033 5081.063629 4816.357160 4556.995284 4303.302156 4055.546357 3813.945847 3578.672537 3349.855837 3127.584002 2911.900629 2702.790501 2500.142746 2303.672637 2112.819201 1927.056910 1750.933730 1601.785936 1497.757948 1436.163938 1409.744781 12994.718816 13065.850658 13197.136657 13332.797059 13366.505718 13227.740865 12975.978793 12682.824444 12406.444075 12161.744101 11950.026969 11770.914042 11612.062843 11456.911845 11292.183642 11112.517686 10918.346495 10711.655307 10494.163742 10267.100138 10031.323199 9787.465846 9536.059850 9277.628937 9012.748365 8742.074966 8466.354180 8186.411093 7903.131745 7617.439748 7330.271943 7042.555614 6755.188776 6469.024279 6184.857928 5903.420427 5625.372759 5351.304450 5081.734176 4817.112160 4557.823842 4304.194433 4056.493986 3814.942811 3579.717191 3350.955726 3128.767342 2913.243676 2704.482649 2502.640959 2308.064094 2121.635281 1945.736873 1786.074023 1652.237448 1552.712258 1490.105818 1462.403306 13006.453139 13062.041042 13151.986459 13230.906271 13235.374995 13129.516998 12930.673130 12684.768099 12433.680988 12199.538167 11989.691147 11803.316908 11632.557693 11466.219809 11294.459478 11111.753808 10916.654967 10709.803294 10492.366235 10265.396549 10029.707450 9785.928602 9534.600002 9276.254161 9011.472220 8740.913447 8465.322846 8185.523065 7902.396557 7616.862884 7329.854884 7042.296214 6755.081822 6469.062132 6185.031173 5903.718473 5625.784367 5351.818173 5082.338721 4817.796661 4558.578095 4305.009111 4057.360951 3815.855702 3580.672777 3351.957091 3129.831451 2914.419170 2705.891033 2504.568356 2311.148245 2127.162924 1955.743037 1802.313949 1674.000763 1577.093692 1514.918361 1487.048850
</DataArray>
<DataArray type="Float64" Name="Velocity" NumberOfComponents="3" format="ascii">