<VTKFile type="PolyData">
<PolyData>
<Piece NumberOfPoints="2064" NumberOfVerts="2064" NumberOfLines="0" NumberOfStrips="0" NumberOfPolys="0">
<PointData>
<DataArray type="Float64" Name="Pressure" format="ascii">
 6427.811744 6294.173597 6041.224724 5682.873668 5254.041238 4804.360390 4391.233593 4059.935519 3828.465873 3686.256313 3602.692551 3541.671029 3475.763281 3391.889460 3287.742618 3166.087599 3031.140052 2886.960075 2736.898247 2583.502146 2428.608485 2273.495810 2119.041101 1965.855789 1814.392488 1665.021761 1518.082191 1373.908764 1232.844943 1095.243481 961.460272 831.844650 706.728655 586.416957 471.178493 361.240309 256.783738 157.942760 64.804268 -22.590158 -104.241338 -180.188818 -250.506755 -315.299620 -374.697899 -428.853895 -477.937614 -522.132501 -561.630390 -596.624142 -627.294814 -653.788310 -676.180524 -694.456749 -708.570418 -718.580103 -724.689374 -727.256058 6393.505022 6261.343228 6001.864989 5626.455399 5165.356804 4671.141645 4221.008686 3878.759758 3664.784881 3561.137658 3522.217414 3496.605568 3451.807079 3378.738406 3280.087487 3161.439589 3028.273880 2885.216638 2735.887648 2582.976496 2428.404686 2273.506923 2119.199538 1966.121769 1814.745300 1665.452951 1518.590332 1374.495606 1233.512752 1095.993370 962.291310 832.753551 707.709860 587.462971 472.280348 362.388070 257.966986 159.151022 66.027366 -21.361841 -103.016670 -178.975810 -249.312516 -314.130372 -373.559062 -427.750269 -476.873771 -521.113633 -560.664201 -595.725011 -626.492043 -653.137691 -675.758552 -694.288336 -708.524845 -718.465363 -724.439780 -726.936937 6377.233171 6244.578400 5975.004231 5567.166012 5043.799141 4438.806947 3888.743848 3515.535492 3333.570748 3311.163318 3376.020762 3428.493815 3420.793905 3363.011463 3271.504741 3156.480843 3025.312425 2883.440610 2734.854074 2582.422513 2428.165162 2273.476031 2119.310579 1966.334843 1815.038724 1665.816866 1519.021876 1374.995354 1234.082230 1096.633455 963.001333 833.530923 708.550073 588.359834 473.226356 363.374823 258.985603 160.192514 67.082943 -20.300528 -101.957360 -177.925529 -248.277536 -313.116230 -372.570663 -426.792133 -475.950584 -520.231523 -559.833770 -594.968588 -625.860970 -652.751270 -675.866760 -695.099877 -709.672580 -719.260084 -724.763531 -727.014050 6392.285031 6267.664990 6002.716285 5579.514125 5095.903820 4490.545422 3864.908875 3399.708353 3146.458467 3112.608188 3273.242415 3388.456990 3398.664318 3350.826470 3264.385835 3152.118560 3022.575667 2881.730118 2733.819802 2581.842405 2427.891570 2273.409905 2119.387020 1966.513500 1815.296591 1666.142592 1519.411296 1375.448100 1234.599297 1097.215580 963.648038 834.240075 709.317807 589.180719 474.093704 364.281057 259.922634 161.152089 68.056938 -19.319876 -100.977285 -176.952629 -247.317718 -312.174718 -371.652060 -425.900596 -475.090212 -519.407256 -559.053581 -594.249139 -625.243581 -652.353766 -676.097033 -697.647349 -712.987169 -721.068221 -725.455398 -727.224274 6447.974402 6348.885944 6145.438174 5829.164563 5499.779910 5531.832961 5121.057140 6170.437667 6156.380596 5784.191561 6640.643295 6743.419903 6813.524459 6190.921418 6118.388898 5389.806132 5128.300515 6353.081340 7088.081203 6965.327813 5328.478571 4946.419091 7367.181372 4794.859464 6841.291398 4898.776981 6716.592376 3978.723190 5765.944548 6129.701654 5186.394440 4679.897790 4902.157913 6275.114236 4093.453629 3813.201594 5320.122229 4361.536340 4457.177599 4417.835048 3634.318772 4429.451058 3758.502597 2838.634971 -719.403358 -723.380132 -725.983137 -727.098137 6534.970737 6463.493965 6356.463188 6208.478603 5994.358545 6402.459390 7057.432624 6288.329403 7279.184039 7535.031769 6776.406708 5296.254445 6782.757069 4981.275267 6656.580760 5565.241837 6541.043401 6870.720858 6420.067081 6513.436839 6413.050561 6082.519394 6797.717549 6307.440475 5928.968909 6154.168647 6968.875781 6387.498044 7290.091953 6392.025833 6801.806309 6976.143581 5757.844835 4974.811337 6744.325608 4843.868737 6800.575018 5881.668256 3544.746915 4513.102304 4137.358026 4777.066785 4789.073070 3844.229726 -723.397287 -724.347628 -725.484655 -726.011841 6633.514369 6557.724110 6420.426564 6235.391378 6944.720912 6706.210176 6166.354887 5479.320523 5849.636324 6027.058655 5477.653476 7421.054533 6629.207230 5953.958231 6062.808778 5567.682222 6232.808009 6318.483229 5843.438021 5502.322302 6096.038259 5275.587775 5900.934723 6627.757119 5143.595912 5515.710229 7111.382066 5964.357715 7036.225267 6493.296490 6073.278030 4912.682017 6232.419124 6385.953057 5572.723790 6221.522196 4841.245777 4365.920466 5421.005250 4075.237306 5568.294020 3879.794245 3949.970951 3514.010091 -722.759075 -722.912098 -723.266763 -723.423034 6732.927392 6646.327800 6470.377729 6251.195887 6989.917536 6737.158254 4747.903722 6492.463396 5282.679089 5447.601338 5504.579230 4891.639957 5458.378799 6163.092765 5348.844063 4998.394147 5554.807160 4983.220205 6128.569016 5515.918246 5796.521272 5852.159632 5883.270235 5480.704496 5711.239841 5864.349628 5411.902546 5176.399565 6594.285874 6806.607902 4904.348357 5934.525904 6276.750080 6434.671401 4055.489504 5639.753502 5704.165300 4632.382186 5575.658192 4725.510811 5123.290584 3848.186587 5194.474533 4620.586022 -719.134500 -719.031031 -719.055957 -719.029231 6817.077202 6720.872782 6549.928629 6363.691928 5174.725927 6276.951180 5712.260599 6198.001555 4788.177393 5351.471856 5517.072932 5367.574234 5485.150867 5608.222738 5927.377524 5453.256074 6004.337256 5430.976707 5593.811967 6111.066614 5189.337740 4628.105519 5853.655331 5207.572345 5548.597432 4975.672996 5166.615084 4638.598888 6535.057754 5848.091939 4997.706809 4823.697552 5960.171341 4856.274937 5308.233269 6452.903182 5604.470192 4689.453938 5213.660649 5088.493245 4372.803733 5019.201245 3679.340176 3963.992925 -713.142345 -712.956880 -712.854113 -712.752151 6872.078920 6749.896803 6503.950822 6310.183037 5847.038828 5167.777462 5785.561482 5657.415433 6277.306734 5788.573680 5560.169567 5858.530098 6121.163911 5614.364284 5770.096536 5461.933170 6313.990694 4128.902127 5488.596215 5576.322602 5152.415481 6223.862192 6274.223738 5393.856063 5243.234663 4623.339889 5447.220742 4164.273026 4644.105872 4905.873056 4559.377702 4714.486261 6242.359573 4001.573295 4364.406375 5679.351516 4881.574446 4200.642082 4855.088735 5075.886633 4703.467061 3695.512740 4689.899755 4359.399204 -705.125088 -704.920724 -704.775424 -704.649306 6911.762289 6799.425348 6581.155341 6443.009760 4541.995256 6002.209384 4507.604807 4865.904367 4826.348661 4699.229670 4814.420158 5792.934735 5770.061784 5273.479093 5734.962278 4211.870645 5047.027767 5454.330660 5774.051321 4849.203873 6057.790893 4829.403913 5782.967928 5699.261002 5690.565189 4586.586388 6170.636105 4941.883623 3469.399778 4496.975615 5106.964693 3780.018190 6133.874944 4328.737948 4437.011280 3541.394935 5754.667798 3835.596724 4484.178418 3521.765241 4109.438411 4798.912271 4676.684774 4434.153720 -695.322180 -695.123012 -694.970270 -694.842193 6944.262597 6879.857103 6807.455747 6812.421191 4596.135461 4720.182512 4879.640317 4576.255745 4594.780900 4440.375404 4495.886554 4651.229543 5034.884401 4365.588488 4406.974366 4703.310227 4600.220786 4589.131832 5468.991866 4943.153129 4634.352691 4822.150242 4178.109738 5435.995832 5915.187452 5474.285166 5583.611470 6101.634761 5574.344319 5155.236534 6126.841571 5955.021796 4944.390270 4376.027137 4574.378344 4201.035974 4319.566274 4097.395727 3588.924387 4186.834527 4960.610266 1692.865652 4674.059452 3736.781249 -683.928523 -683.743616 -683.597499 -683.476511 6962.012350 6925.105374 6871.052327 6836.207234 4713.223322 4522.009630 18528.388980 5156.071450 4625.261903 6918.710409 8223.946726 5153.524137 4820.642316 4889.290834 4589.811337 4570.587647 4243.442397 4594.490864 4450.531240 4576.667982 4618.805062 5039.396439 4463.514778 4463.056842 5303.337844 5730.524724 4958.079053 5684.124638 5533.731317 6567.034147 5124.753625 5765.503076 6301.586405 5148.342896 5843.031867 5270.722963 4981.328990 5597.674041 4169.119832 4707.871704 3936.550569 3528.276440 5139.812927 4342.612068 -671.115535 -670.947848 -670.813593 -670.703000 6972.619619 6969.869939 6981.535495 6952.184099 21373.381199 7623.465793 10125.042745 16718.013681 10383.219490 23953.965113 16130.952335 13169.705363 11448.446368 15233.710836 7404.359907 23122.700708 5487.108311 4439.082909 5844.124474 4547.122821 4721.531793 4457.645749 4702.699226 4461.200979 4637.103968 4697.294283 4276.722508 5638.531684 5275.677320 4342.953634 4872.686678 4405.426669 6492.013176 6086.779232 6352.202448 5752.239121 5378.518437 5959.208902 5724.302844 4967.492116 5457.550602 4331.062956 4434.358769 3903.654330 -657.038779 -656.888671 -656.767755 -656.668364 6976.821847 6994.054904 7018.269004 7034.042938 24917.503771 19496.572275 3570.096785 23508.710609 28597.524896 10072.039508 17363.184791 26427.514111 26345.053538 27819.978147 8733.786551 20878.661391 24885.609244 13721.643458 16563.145524 5931.892341 9432.193571 6121.705973 5614.061508 5133.676313 5186.341177 4371.131744 4888.685258 4613.073638 4733.127834 4156.496727 4622.235910 4316.260704 4015.592916 4540.984445 4164.856389 4061.421754 5533.208279 4856.404869 5152.228102 6117.463589 5018.327383 5024.683710 4957.281520 4388.846878 -641.840199 -641.706828 -641.599063 -641.510547 6973.817051 7027.740977 7175.328600 7297.810516 18510.959297 28372.348555 1359.051818 14208.118251 20319.729735 1045.551813 5712.719432 20960.565302 28875.067804 28906.066853 1094.491304 24744.874817 24313.231141 19825.562917 25884.081559 20511.654704 13513.922828 12205.484520 9628.957796 14991.336919 9142.121455 6189.242210 4711.139821 6365.254574 4526.948000 4276.625420 4767.029436 4773.620793 4816.729440 4824.806227 5098.449740 4730.940104 4146.347978 4476.769072 4337.824251 4093.583823 5424.483516 6612.904230 5406.122441 5340.760742 -625.647985 -625.529859 -625.434235 -625.355692 6950.270686 6994.092407 7110.317117 7217.800185 23792.988315 4123.509758 892.234090 1665.506959 29451.042904 833.421511 79.568627 22266.551912 916.627609 2908.376720 8355.658478 19942.987460 13060.000521 14604.014729 6160.005991 25877.028413 7426.970654 22466.028427 23656.916668 19094.857852 19024.772905 17932.234011 11190.457821 11781.683208 7182.883305 6760.762054 4883.493957 7427.968104 6004.682143 5402.693036 4653.894372 4904.489529 4600.929014 4478.418624 4831.620268 4232.162474 4418.601836 3879.505220 4414.373133 5572.232327 -608.575230 -608.470397 -608.385415 -608.315577 6922.365116 6936.170894 6928.718856 6890.070502 2344.220193 14745.863849 330.326629 14717.064837 1527.681006 22198.596375 22233.651087 11052.597900 318.426868 24688.925138 11552.327381 2859.348592 925.775114 14181.490561 21107.288902 2452.586551 6605.760903 3838.163602 14845.082331 2898.915100 23673.509581 14906.975285 21667.687267 25800.263125 23879.127304 23390.411134 25745.305840 19832.426165 9208.951084 6374.086542 6715.027021 4403.233293 4686.060533 4054.369709 4764.014647 4162.658210 4619.001644 4231.028283 4034.801976 4564.786266 -590.717819 -590.623918 -590.547691 -590.484993 6910.521363 6925.893293 6962.997922 7005.338493 3017.082324 3010.111603 482.698717 841.037287 2319.663147 -1572.513745 904.740027 -311.483450 1494.226889 1119.349588 1129.451298 6332.588541 2170.085553 25775.906146 -1592.072885 1802.407632 7170.300780 1437.620233 1245.300630 2689.813562 6124.670351 3672.270557 16392.188820 3316.820657 3970.789004 1552.238205 16191.143274 15356.246994 22986.868331 16123.298841 10798.339582 8728.095839 8240.658490 4774.184296 5218.514191 4654.217276 4570.035337 4749.858980 4102.281800 4261.147483 -572.151740 -572.065984 -571.996265 -571.938847 6909.535016 6933.083879 6985.373381 7069.887352 29527.659048 -1881.242039 7291.358943 190.803741 3330.696850 94.088863 972.099638 -140.119801 -890.207185 -1109.648367 883.596067 -248.953616 763.450663 -310.823420 2156.651829 -392.590069 841.231640 -73.658919 2407.139657 131.038961 1852.506358 2370.245933 2084.036151 1726.133348 1280.543611 872.520348 2882.017031 4427.516492 14094.122770 23840.549196 17479.551826 18639.929125 21877.618559 14342.640314 6967.209561 5667.945775 4707.941018 5036.546601 4744.059970 4293.892143 -552.929930 -552.849080 -552.783244 -552.728946 6905.230515 6944.893603 7112.388406 7337.779025 131.522875 199.036247 18778.569518 893.516820 -50.278900 1094.099591 -8409.865609 -10389.288703 706.417143 -739.717163 -922.913666 -196.594261 -17590.572714 2633.028599 -21236.663348 199.773846 2578.647311 21.915133 -247.762288 15.824852 -577.062349 -206.451175 909.525633 293.101963 2107.327440 1346.737671 1338.827772 2372.316045 2235.844663 2961.649451 535.961742 11537.252666 17152.754379 17393.326137 20775.547725 11625.050499 6249.228363 5074.052426 4483.923897 4781.683387 -533.078782 -532.999125 -532.934167 -532.880518 6885.795972 6883.739895 6894.371107 6933.819177 385.057639 385.375157 652.562393 -19043.005371 7291.358943 -31141.995903 349.080299 -8121.945421 641.811167 8866.044345 228.445529 296.292437 1540.921239 -3733.854061 121.286671 586.757504 -21236.663348 319.407398 16.319041 1569.086934 1404.300500 -112.268785 631.001151 603.426968 -8325.386299 1823.219442 835.605682 743.317084 1614.972888 1031.433374 1112.131450 -678.623308 9383.569162 3193.525445 4907.249394 11865.797593 17351.774422 6745.379710 6645.263738 6095.315191 -512.594552 -512.511919 -512.444470 -512.388704 6884.886322 6860.546842 6769.922938 6641.512005 8431.195071 1844.397545 123.648395 487.477192 35168.568011 -8980.060369 -17077.583756 35448.824166 17288.887807 -3129.117352 -8216.147152 387.216561 35288.427639 -2804.910164 -5426.496320 12066.235048 7090.587838 7284.166761 20596.589777 12176.877173 17477.398330 26960.718940 380.570124 -57.755682 528.590761 345.895902 -1525.601799 -7759.810796 174.046977 1239.355019 1676.307355 885.350137 5.658176 1478.826131 -538.740298 2435.246350 9199.580114 18885.832199 16466.093844 8537.175045 -491.440036 -491.349875 -491.276266 -491.215383 6917.039416 6921.025734 6928.966926 6860.156183 2226.882386 -19043.005371 -18075.689824 -11689.724009 -8407.443983 -20505.103983 -28571.454658 -10022.924308 -18690.231329 -17446.982984 -15221.037530 -17446.982984 -15497.486134 -3369.368795 22835.360477 -11451.231326 -31140.109146 -15098.437484 -12917.884028 24656.427763 771.639302 -11462.549853 537.523210 13230.268889 -14516.841449 8574.123753 -117.758731 1211.767548 14.221700 -9071.149435 1166.822594 -256.491012 735.172273 328.109586 30.941160 -400.231642 625.390253 691.234007 9356.526047 21995.375489 -469.542087 -469.439635 -469.356041 -469.286921 6956.154434 6995.509437 7120.646987 7128.558590 -446.790811 -446.671388 -446.574073 -446.493689 6974.809681 6976.351088 6957.073853 6827.425073 -423.041580 -422.901063 -422.786772 -422.692513 6989.613092 6925.529704 6722.871535 6454.770788 -398.121383 -397.956907 -397.823443 -397.713598 7010.586311 6886.185611 6474.735472 6033.730486 -371.841458 -371.652407 -371.499440 -371.373864 7007.992099 6851.601941 6315.023054 5729.686396 -344.018601 -343.807935 -343.638088 -343.499105 6952.293228 6850.308867 6555.989637 6133.473507 -314.507914 -314.283888 -314.104134 -313.957683 6834.821352 6761.315963 6563.649286 6262.630977 -283.250010 -283.028274 -282.851640 -282.708672 6697.143882 6649.678535 6530.580715 6340.154477 -250.335350 -250.141343 -249.988827 -249.866850 6567.291497 6550.411543 6511.861525 6365.380793 -216.087019 -215.958341 -215.860776 -215.785330 6450.639361 6471.393337 6586.492569 6572.024569 -181.159618 -181.147650 -181.146886 -181.152375 6337.243248 6317.437251 6286.636939 6215.980219 -146.644112 -146.813386 -146.961445 -147.090205 6249.758141 6200.630079 6074.836653 5921.981518 -114.153414 -114.575816 -114.929467 -115.226916 6182.461984 6119.736700 5989.728531 5809.816012 -85.837826 -86.576550 -87.182438 -87.684363 6119.921952 6038.766528 5876.242151 5668.484877 -64.243012 -65.317474 -66.178181 -66.882696 6056.017863 5947.667610 5660.281818 5342.238563 -51.884269 -53.199297 -54.198158 -55.006015 5998.765185 5955.040392 5946.442991 5834.381407 -50.384736 -51.585504 -52.314188 -52.898734 5918.669045 5836.481332 5681.305419 5512.076198 -58.999899 -59.161094 -58.523029 -58.047952 5864.266596 5743.102662 5432.898308 5109.241453 -72.218463 -69.279228 -64.614440 -61.171015 5876.494003 5785.886594 5672.748757 5539.848816 -76.679848 -65.994608 -51.387502 -40.982551 5947.357673 5834.466467 5607.472737 5427.658386 -68.499029 -26.701989 19.741329 42.247858 6083.595676 5994.616075 5805.717737 5588.642400 -13.014732 149.059704 219.982320 247.193940 6246.926306 6179.175337 6032.952247 5820.783191 485.117054 609.996113 627.929300 629.000887 6385.274605 6306.486260 6067.719971 5800.955836 1511.719390 1417.001512 1271.931655 1191.794022 6461.111373 6407.587171 6212.636420 5990.975404 3183.343014 2606.768077 2055.096128 1822.636766 6450.932483 6446.826108 6427.599262 6389.986049 5450.285974 3641.816676 2591.975449 2247.265644 6365.966337 6369.916278 6410.853991 6436.934704 4344.960663 2592.294542 2290.967188 2203.471072 6261.772299 6231.599277 6133.241844 6079.227348 -1152.602032 596.436074 1543.323438 1804.956582 6192.501421 6180.466608 6061.341513 5933.964283 -2577.589013 -39.489877 1010.272055 1380.608250 6154.599682 6262.030466 6602.184786 6781.205876 -545.169825 186.627502 827.707444 1112.687955 6070.602863 6130.266473 6254.535559 6317.241201 262.830415 519.886242 826.046459 987.914238 5974.297176 6027.536806 6144.495170 6152.456791 614.311524 712.194912 847.834672 926.089824 5866.489312 5871.309191 5825.621006 5777.229392 739.106816 776.808710 834.816451 869.441598 5775.935880 5792.764066 5780.945124 5692.889705 743.086511 757.690054 782.109950 796.796017 5694.597609 5758.451628 6049.868845 6295.549721 686.079539 692.280143 702.891307 709.312640 5610.711462 5606.891325 5566.558843 5601.826722 604.554578 608.119507 613.424602 616.774589 5560.871982 5631.896624 5842.151739 5970.174144 521.034631 524.039473 527.488770 529.866341 5483.966702 5568.784056 5810.936899 5992.283105 448.898731 451.930955 454.797225 456.938560 5351.537689 5402.736246 5553.256747 5704.480563 395.391580 398.502638 401.180773 403.278470 5191.587600 5184.998236 5180.026584 5217.718971 363.814033 366.923561 369.502134 371.571990 5033.572551 4986.615665 4923.370095 4949.651920 355.224151 358.277109 360.776206 362.809211 4911.662356 4821.824942 4559.915876 4335.284902 369.750079 372.761928 375.219370 377.234174 4844.107137 4781.284300 4705.880481 4674.736370 407.546525 410.598818 413.088748 415.139179 4818.583441 4773.903695 4709.466479 4644.156742 469.412128 472.627226 475.249433 477.412424 4828.178304 4815.658723 4738.081145 4595.101520 557.081829 560.589066 563.445845 565.800890 4836.229632 4897.278897 5082.247892 5149.609819 673.199765 677.097078 680.263986 682.868202 4796.766253 4876.916524 5236.499248 5582.736526 820.960512 825.271345 828.763183 831.622643 4715.544212 4676.794714 4608.856042 4720.919361 1003.382490 1008.006243 1011.737706 1014.774446 4673.958475 4648.312514 4660.354325 4715.643861 1222.156194 1226.811513 1230.552634 1233.567633 4652.663764 4601.907935 4527.600415 4541.506291 1476.009171 1480.174400 1483.505711 1486.142388 4648.884151 4583.041523 4407.205956 4249.758796 1758.581894 1761.449755 1763.735130 1765.458800 4646.547388 4632.998985 4762.741359 4907.571998 2055.964086 2056.453636 2056.878177 2057.010328 4621.962364 4554.596166 4412.232492 4365.360184 2344.336945 2341.249626 2339.032387 2336.927929 4625.075218 4552.087389 4366.312822 4270.610857 2588.514910 2580.991269 2576.038531 2571.617264 4668.229139 4639.415585 4609.141108 4589.968873 2742.154898 2730.779937 2725.527923 2720.725747 4749.395965 4709.089038 4598.606548 4499.482968 2749.237599 2738.581799 2743.623773 2746.044702 4878.814331 4864.347619 4853.573325 4804.397262 2537.861505 2550.585957 2599.668350 2629.846321 5020.536650 5018.067162 4980.351361 4838.665912 1778.071332 2085.418255 2325.993931 2397.508216 5128.731803 5138.373008 5194.078147 5109.392521 918.046067 1884.493468 2054.197128 2095.993306 5183.008418 5170.642496 5278.637641 5330.088050 2048.471396 1909.883547 1721.885556 1700.653050 5238.793193 5090.628204 4732.191980 4460.226700 1554.575166 981.136111 1072.510175 1160.037289 5435.457403 5236.077182 4792.087334 4477.964608 -1145.148403 -183.517331 356.839002 554.610725 5812.721685 5606.126040 5186.794431 4877.949796 -1714.577472 -845.745883 -259.431111 6.384290 6355.226688 6182.078724 5893.480097 5592.975731 -2103.060040 -1403.706995 -692.760050 -402.145063 7035.246646 6807.220427 6317.941427 5851.538198 -2162.497504 -1343.856633 -858.269841 -660.206683 7896.782934 7681.080166 7311.898486 6920.431603 -1070.786665 -1249.382538 -1047.722733 -851.413720 8950.618112 8709.986678 8119.164123 7421.024127 -2519.038901 -2099.090910 -1327.110345 -971.031447 10193.741276 10033.125163 9698.934754 8944.857732 -3866.782234 -2313.256792 -1243.288346 -868.799559 11542.018597 11371.674331 11068.863102 10276.978470 -2116.758947 -1305.642953 -736.475161 -490.864261 12972.423925 12709.129949 12124.239395 11097.302849 -118.075879 -77.703030 1.994187 55.062341 14522.104783 14206.182994 13401.654088 12150.004389 1728.488272 1101.387988 708.313899 582.371827 16162.488982 15897.748507 15289.252131 14152.858459 3323.320882 1753.023628 1127.968905 911.935764 17784.759588 17600.420459 17344.873907 16459.601706 3172.896519 1680.866142 1135.306537 959.319097 19293.701580 19003.884041 18324.453287 17241.455082 1751.748947 933.919663 796.570192 786.154105 20746.144837 20428.796861 19606.812411 18706.782307 -427.829069 -69.624400 368.681226 588.205114 22192.842115 22157.186087 22236.716476 22233.483798 -1428.878171 -566.611474 262.587037 597.545987 23546.250760 23795.445884 24523.802459 25205.564813 -886.005300 -209.305704 602.589031 933.356467 24727.877943 25166.252524 26412.526344 27725.864064 -98.539278 705.721577 1306.194987 1582.263139 25692.372105 26084.741123 27147.263695 28289.673539 989.091659 1857.551114 2276.022675 2463.818296 26479.459854 26678.251937 27024.518195 27608.656755 3094.286230 3252.288260 3391.811410 3465.373320 27139.883286 27347.153833 27886.470899 28718.053642 5321.765388 4665.701645 4495.681232 4453.959396 27576.553918 27736.349878 28172.109562 28909.403601 28974.107306 26976.163648 24715.444305 23647.980773 22001.600405 18124.955350 14788.691158 13326.962436 11200.158522 10907.565108 8294.690000 6317.969357 7436.965867 6927.612318 4152.528995 3692.078342 2810.206932 3450.931702 3091.193897 1264.615145 -243.671375 -980.564344 -306.358408 807.225742 382.392233 364.755235 553.502834 396.262921 593.556870 944.393797 340.112380 -168.598698 83.228262 2015.387052 3667.775085 3093.890562 2587.660701 2586.755470 2787.769738 3115.723741 3527.886958 3997.796355 4526.390860 5182.679641 6297.568864 7299.925230 7430.405495 10653.656275 13524.249965 9970.254150 6753.883675 5777.206064 5417.014546 5302.024701 27770.920615 27818.442994 27925.603760 28015.838367 27673.709700 26360.820108 24962.181669 24048.758534 21980.023885 18045.881595 15324.834818 13710.481575 12090.379815 11059.948680 8998.011180 7512.853800 7602.734047 7068.433814 5303.389269 4232.707801 3489.449296 2998.823544 2317.536660 1363.269381 489.410397 24.968225 100.827915 361.864113 366.774054 366.659209 386.863434 413.499506 468.814604 499.095334 422.919639 447.356649 847.670820 1642.104925 2324.417708 2450.883583 2457.328421 2557.949899 2789.301120 3124.904574 3537.301768 4004.960310 4524.119926 5125.060909 5823.577732 6543.470142 7415.066376 8701.290263 9367.929501 8345.860072 7136.819530 6396.307538 6053.496036 5925.839192 27812.152252 27764.014924 27645.872738 27355.633007 26716.784392 25629.181445 24302.799357 22782.989915 20743.908734 18314.926345 16129.684208 14354.069372 12778.388528 11319.438575 9850.873904 8630.208022 7726.973573 6751.192781 5597.006853 4547.059766 3687.373053 2948.915079 2208.870593 1454.425241 815.928609 427.112755 304.491406 316.387486 329.062378 334.489947 347.435813 368.568309 400.355039 434.105981 484.737289 636.873969 969.573539 1440.384777 1868.213805 2133.776892 2310.806632 2509.093051 2779.470755 3128.617866 3543.729679 4007.226378 4507.374166 5043.369261 5616.151097 6223.407783 6879.819873 7514.526126 7801.826968 7554.947587 7068.814506 6658.234036 6410.673651 6303.100244 27800.822652 27706.563420 27491.034257 27071.086617 26348.889855 25288.036216 23942.089455 22328.691581 20422.130733 18348.754394 16369.101100 14604.496942 13013.777212 11531.850312 10141.285274 8910.239255 7827.889466 6762.658169 5674.690395 4654.313696 3754.893275 2953.050370 2202.934588 1510.542195 944.020508 570.109064 389.527170 332.129352 320.487829 322.015709 331.713972 350.067105 378.978417 425.492966 515.589042 695.770114 992.962572 1367.802177 1728.193762 2013.720768 2246.921220 2487.377847 2778.613336 3135.033910 3550.513585 4009.828654 4498.431399 5008.327966 5537.553732 6085.119808 6633.225343 7098.764784 7331.263982 7263.521703 7012.007442 6743.368114 6551.335377 6457.702451
</DataArray>
<DataArray type="Float64" Name="Velocity" NumberOfComponents="3" format="ascii">