<VTKFile type="PolyData">
<PolyData>
<Piece NumberOfPoints="2064" NumberOfVerts="2064" NumberOfLines="0" NumberOfStrips="0" NumberOfPolys="0">
<PointData>
<DataArray type="Float64" Name="Pressure" format="ascii">
 9257.265956 9243.939052 9216.757551 9178.372065 9136.411275 9101.172016 9076.588551 9055.341816 9031.623678 9008.353948 8990.914819 8981.338821 8976.964167 8973.054066 8965.742641 8952.789022 8933.068579 8906.027844 8871.395482 8829.059556 8779.017225 8721.351268 8656.215269 8583.821250 8504.428121 8418.330907 8325.851046 8227.328025 8123.112441 8013.560463 7899.029551 7779.875252 7656.448865 7529.095774 7398.154289 7263.954827 7126.819342 6987.060898 6844.983338 6700.881013 6555.038568 6407.730799 6259.222657 6109.769600 5959.618712 5809.011643 5658.191801 5507.421533 5357.022584 5207.469705 5059.599739 4915.042558 4776.945257 4650.656693 4543.231647 4461.084409 4407.884386 4383.763128 9262.792417 9248.574431 9218.428258 9172.980926 9120.019391 9079.082047 9061.394112 9045.439773 9018.599185 8991.569693 8973.665909 8967.866977 8968.515584 8968.163216 8962.677877 8950.526437 8931.134251 8904.222414 8869.642500 8827.335691 8777.321204 8719.690102 8654.598161 8582.256975 8502.924001 8416.892540 8324.482378 8226.031569 8121.889539 8012.411547 7897.954371 7778.873063 7655.518573 7528.236044 7397.363621 7263.231609 7126.161877 6986.467420 6844.452014 6700.409931 6554.625697 6407.373898 6258.919050 6109.515644 5959.408530 5808.834110 5658.023409 5507.209633 5356.646631 5206.654842 5057.740118 4910.917172 4768.605484 4636.352058 4523.466090 4438.501529 4384.612452 4360.531536 9276.421280 9260.973213 9227.145760 9167.596410 9082.045804 9021.323739 9031.897053 9031.748048 8990.039508 8952.161032 8933.164996 8939.113782 8954.001905 8961.399207 8959.056397 8948.174803 8929.298995 8902.594565 8868.099310 8825.833130 8775.848116 8718.248387 8653.194161 8580.897763 8501.615864 8415.640461 8323.289967 8224.901197 8120.822543 8011.408444 7897.015056 7777.996972 7654.704816 7527.483508 7396.671034 7262.597592 7125.584970 6985.946096 6843.984678 6699.994900 6554.261145 6407.057707 6258.648482 6109.286536 5959.213384 5808.657545 5657.831345 5506.923556 5356.082438 5205.377824 5054.724370 4903.780094 4752.216020 4604.323168 4476.352442 4386.164749 4332.489834 4309.286515 9296.626179 9280.473027 9246.901105 9178.686523 9050.672700 8950.881115 9006.693552 9003.267713 8907.391418 8871.734230 8863.339476 8908.481659 8943.736968 8956.490283 8956.234415 8946.220633 8927.695479 8901.129406 8866.689298 8824.449973 8774.486606 8716.912465 8651.890737 8579.633983 8500.397976 8414.473419 8322.177405 8223.845553 8119.825252 8010.470142 7896.135763 7777.176258 7653.941922 7526.777446 7396.020658 7262.001644 7125.042113 6985.454930 6843.543741 6699.602661 6553.915961 6406.757736 6258.391457 6109.069228 5959.030333 5808.498016 5657.672049 5506.711108 5355.690461 5204.498518 5052.575264 4898.202501 4736.306837 4549.929210 4388.026432 4298.468874 4250.654324 4230.526402 9320.455010 9301.985010 9263.184704 9187.486963 7751.983581 8805.434993 7960.128851 8158.598201 7796.612563 8449.577200 7120.425718 8875.124318 8040.503623 8725.094277 6811.630609 7924.378678 8658.840040 6598.469202 7793.684203 7242.341153 7862.941233 8127.474989 8608.316299 6846.391513 6660.338669 7969.313407 6586.019728 7903.191237 6554.154009 6815.046116 8936.118732 6918.225816 6912.683239 8171.385038 8392.338250 8057.014013 6530.754138 7836.962899 7956.910418 6944.125788 -1438.636082 8514.989526 7037.992430 8259.227010 4229.279516 4174.944010 4142.772709 4128.336332 9345.855143 9322.763501 9263.011163 9145.152631 7297.580108 7309.798385 7496.299673 9159.975322 6689.929682 6721.873234 7479.431266 8443.852566 8899.825797 7527.269503 8318.540309 8861.319363 7172.272902 8955.288553 6593.188506 6843.786892 8581.436680 7843.206447 8283.363473 8202.812116 6686.153886 8085.536760 8075.508220 8002.288059 6760.263889 6769.903238 6342.163776 7036.905570 6924.179024 8682.870645 7896.117606 9202.577374 6857.087292 8746.269008 9038.910539 7030.847205 8172.207127 6896.637805 6707.193029 8226.239638 4049.907429 4034.150545 4017.840436 4009.498911 9371.661160 9352.597632 9308.322191 9203.351549 7846.486418 8397.468335 6619.907153 8311.299314 8300.300654 6795.752367 8364.855107 7260.660256 6568.289606 6375.674391 7332.431573 6797.519775 6430.602396 8610.575705 7514.736215 6886.899320 7955.442980 6670.318384 7000.827990 6879.218711 6924.404486 8026.718098 6764.373597 9064.376005 6376.613354 6671.468997 6743.103480 7109.113560 8422.726566 8835.776788 6958.930586 7967.740295 6771.042787 7787.842288 9399.130026 7640.513270 8949.307300 6835.021848 7967.468468 8157.594273 3897.778197 3892.354060 3885.341472 3881.269843 9390.584232 9378.161751 9353.943467 9290.929270 7390.989593 7531.815417 8090.626136 6753.600636 7049.889249 7929.945906 7229.637328 6724.246628 6677.830759 9143.785820 9793.077344 8585.464835 7936.322003 6727.002455 6531.604005 8062.386968 8430.113894 8019.673440 8099.850289 8208.201594 6689.752521 7033.380997 8788.549704 6676.445666 9005.279792 6671.147654 7467.442178 8751.673645 8192.574716 9194.722579 8232.308235 7034.857484 9090.896912 6970.077339 8862.930781 9402.733374 7665.829084 6836.466003 9075.514775 7704.397028 3755.668786 3753.687112 3750.811077 3749.036625 9393.316366 9383.653975 9365.414270 9308.242424 7609.063218 6931.148469 7850.827993 8847.073755 6808.162741 8055.898868 8450.337424 8647.843369 4607.466367 6817.798547 7211.431796 7404.285383 6437.512896 6953.751274 6532.335943 9068.023382 8374.075996 7508.015151 7395.808549 9326.663620 8151.975054 6392.309328 7937.963419 8707.499313 6624.934658 6642.064464 8142.336578 7154.999454 7672.520493 7186.613658 7054.441940 6748.150381 9325.339750 8282.848222 7530.363564 6539.348680 7340.683651 -10034.464094 6921.761602 8845.038074 3618.392610 3617.705084 3616.587670 3615.889460 9374.858308 9365.242721 9354.128606 9303.524042 5890.623888 8238.075953 9628.979876 13084.873388 9600.905517 6587.771131 6868.269220 5461.749600 8829.484865 6803.801454 9968.035724 10821.409852 8526.470051 6498.050244 4872.715582 15324.170073 1924.206157 7258.900171 7823.383362 8469.699379 7481.770074 8790.788880 9036.423257 8932.577742 7437.432691 7832.010543 7426.949349 7992.648707 7501.376441 9775.924090 8559.762342 8849.941925 6586.774353 7782.489035 8117.330374 6538.755218 7593.104411 8419.452203 8138.106330 7113.064760 3484.122298 3483.953919 3483.577944 3483.355604 9335.532448 9315.854888 9270.276579 9193.098511 12836.074124 4530.235200 11947.891896 10997.659712 7411.213310 10025.348802 8924.211440 10382.244844 7480.983003 16048.619176 9363.063725 8655.286274 6971.397819 5569.925839 10252.244904 15985.837409 12358.327821 5735.656161 5674.886692 8977.551427 6870.228034 15791.376405 5105.663877 8535.014748 7619.841503 8546.998615 7773.935442 8555.652075 9443.411323 6671.160947 8858.299807 8660.944280 6064.672536 6626.947100 7882.838784 8250.738149 8662.336677 7225.967923 8715.864474 9652.193374 3352.175604 3352.223475 3352.161016 3352.144774 9283.935911 9261.102426 9210.418285 9137.753789 8755.681728 7966.285678 10871.683194 10593.862320 12244.261491 14541.635862 5575.364471 11320.209213 7682.674508 7028.084948 15362.397086 5902.101216 5911.477804 7259.161517 11949.869639 10463.498728 7081.525728 13540.110690 10511.717551 11242.547747 3970.183107 15893.192903 15341.302147 6525.208997 7184.296618 8719.576972 9826.981576 8581.727592 8449.566877 8418.541564 7169.084235 8092.237365 6639.125486 7790.741653 8158.472782 6475.587310 7665.710910 6784.695654 9922.759865 7277.004498 3222.301111 3222.442025 3222.513536 3222.586662 9224.183898 9205.036827 9163.013220 9104.795633 8731.005336 11031.242725 9707.974500 11515.824512 12604.625166 14512.229848 14728.831274 13764.471554 13288.937486 3473.554716 -1925.841926 11232.938201 7437.814814 9900.528579 9568.302920 4759.451440 11273.207371 9851.102617 6813.765043 6936.930083 10052.179136 11050.229531 6383.245251 11454.636673 7699.024515 8795.079606 7684.567474 9462.228124 6795.068336 6842.139314 8252.992307 7448.370048 5502.050136 6568.397103 8711.054183 8715.168253 8329.054837 7338.193621 7626.843486 7949.058434 3094.416125 3094.598839 3094.728852 3094.841539 9152.323679 9142.611560 9126.937841 9093.227533 15907.117638 11277.285949 10436.921455 6474.744564 12354.236199 15298.078994 8784.742891 11490.542447 11352.197691 9120.005287 9621.462531 9959.502037 10845.034566 14083.028536 12263.134934 13130.166174 10536.068282 7700.952053 8377.046437 9729.448266 7335.532756 -1311.689343 5476.067004 9635.321044 8184.206155 5450.967349 10198.959609 8923.420916 7802.370297 6309.342951 7825.575100 12218.004300 10839.286737 7611.190881 6923.716207 8770.321046 3867.142978 7913.409754 7047.630298 7732.322390 2968.503674 2968.706469 2968.863077 2968.994085 9059.177637 9056.835371 9066.100047 9051.902980 8725.973387 11767.949261 7427.058942 2986.662703 4112.010877 9057.969754 6436.625967 9883.751825 10592.175403 7068.053180 9274.196502 8031.968080 10698.639613 11819.032139 9288.320475 11284.326307 13372.094449 10256.701460 8081.365585 7638.939952 11667.787794 12157.252164 12252.835789 5729.347991 6614.552896 14760.696794 11800.111611 6471.128732 13544.916751 6167.728123 7153.868181 14502.323789 3353.168223 4624.458398 8096.350489 8756.485614 7873.613965 7101.433786 6703.489036 6710.738456 2844.570776 2844.784190 2844.953723 2845.093875 8939.935433 8931.287453 8925.770720 8912.542150 9180.563121 14279.811252 4440.801443 6862.874136 8828.332043 8878.450512 7016.498990 5661.724351 4921.250898 9485.087750 8661.670473 11941.344539 15954.824541 7380.433094 10386.067881 7103.827323 9949.342380 8118.646583 8947.271041 9930.631657 4897.641782 15237.304332 12358.432968 15955.139299 7355.390924 11240.058769 13970.125545 7582.795159 10556.152931 11499.768783 13812.188474 9410.088292 5844.882795 7891.416444 11140.918052 5537.202005 12186.620945 7602.806259 10307.288537 6808.832880 2722.631375 2722.851075 2723.027506 2723.172707 8804.600814 8778.979416 8728.654330 8688.332144 4651.524534 9197.926396 6668.126355 2605.291762 15839.235359 3588.677012 14888.159242 11036.280446 8640.731079 7832.154257 3748.403711 11332.008553 6999.668676 8388.755748 6734.585299 5239.466209 7514.531928 604.890323 6777.486546 6933.156962 6982.053678 9889.506362 8563.988719 8672.730350 8010.504617 12758.500084 9696.250475 8000.033273 10348.017123 15465.051718 14813.481496 3982.302627 9104.394594 9969.856720 4483.020345 7117.075725 9128.704420 9805.239771 7932.866590 6730.854280 2602.699428 2602.923239 2603.103754 2603.252050 8674.044599 8631.739739 8533.898744 8454.313165 13184.904518 3362.977350 6231.254003 6705.980312 6553.712744 10366.560839 7160.614421 7661.360542 7038.331060 13155.440483 3247.820527 9015.601292 8177.720060 3139.013732 7057.188911 3317.682463 6315.311315 3617.946005 11192.651588 14328.960567 8417.606379 13167.952792 8313.502695 9004.885245 7766.990995 5079.132077 9887.027966 6632.054261 12313.207318 7009.753234 11457.044892 8448.345997 5831.083061 10236.946468 7207.278532 15055.884975 10136.149541 9248.677142 6630.173925 7760.562465 2484.786180 2485.012850 2485.195997 2485.346342 8565.832010 8522.819896 8436.703619 8385.421152 4245.994271 8215.728044 4540.119232 2866.891285 10192.117370 6851.629663 8562.149751 15798.487389 7817.194266 8884.853102 8320.028278 8126.396218 9314.162867 14177.339604 15114.521404 6948.349113 6545.147065 6633.724565 2197.849004 14818.676953 7974.595724 8166.880390 6297.009920 8243.893387 7896.809831 8962.540252 6058.666582 6941.631501 10143.842848 7256.159112 7535.430642 8994.257329 14002.961102 9338.884000 11751.640712 11201.815004 9919.635922 7424.937881 8499.156924 9064.135395 2368.899202 2369.127887 2369.312796 2369.464541 8481.570253 8442.252542 8366.398166 8320.133119 13537.514726 7384.124245 6507.354434 7115.251796 4958.468321 8448.207558 13991.503731 11244.946037 8836.107606 8989.179703 6030.001402 10432.664400 7215.144263 -108.948811 10717.355957 11390.443323 8989.147058 6688.903791 13725.880615 4823.479566 3978.066472 6926.543055 8871.613485 12786.684460 6501.691429 6838.041437 9108.901498 6707.986755 10008.862574 15069.016217 6968.410532 8642.192389 8805.180063 9382.508598 10513.001428 8802.319361 8296.980058 16172.366377 11142.997479 9616.738885 2255.042155 2255.272200 2255.458264 2255.610937 8416.152006 8377.735767 8292.777139 8218.727021 6382.593718 8826.204898 9794.918246 6945.983455 2092.409019 8639.189667 11076.004743 8166.382191 8467.504816 9132.475417 8224.355355 7399.996922 15971.414486 6818.411208 6363.976371 4587.337913 8703.513877 8188.191476 8229.949353 13070.117817 9747.034169 7652.891588 14667.443594 12157.484496 8830.550931 8654.064963 12170.155138 1786.358311 8377.174382 11193.118751 8909.722113 9607.381922 6962.095874 6840.009968 6705.274789 7051.670213 11629.934339 6224.212288 14592.676115 12893.025267 2143.214862 2143.445710 2143.632448 2143.785665 8365.267026 8336.641209 8283.870566 8229.133535 3376.095597 10180.649064 10284.007943 6584.616373 7534.314923 8298.823033 -14566.533808 6843.851351 6884.345366 7171.057959 6727.929245 6675.207504 4836.822584 6864.912617 7821.207234 6474.628081 7482.300181 7392.527174 6718.919780 5826.873163 2106.793545 10002.886184 8719.328585 9700.913797 6635.905592 9180.984885 8011.667651 6761.300050 8620.067102 6749.717178 8585.003478 6795.083635 12833.724982 7145.535158 8262.159899 6853.526509 6912.592354 9162.121489 8889.038669 15469.863804 2033.413499 2033.644656 2033.831656 2033.985083 8320.348313 8294.134132 8247.405490 8192.324462 6873.993515 7587.303338 7181.921438 1328.334141 6009.580346 6678.298581 12491.775518 8220.113446 10256.122882 6709.107173 6744.015681 8767.719344 8201.959514 14096.178829 7015.652307 -13575.964069 6990.934571 7446.712919 7067.172943 11944.077868 12631.847129 3613.958189 6373.951736 7878.529541 8295.576801 6416.486805 6733.751611 6788.320856 6984.940400 8797.442983 7738.753208 1717.888742 8363.186178 8011.155126 15452.680988 7169.349731 7638.863133 7241.403303 9038.418186 13758.581970 1925.630849 1925.861871 1926.048765 1926.202103 8279.424378 8246.962318 8169.391680 8068.947759 7529.137329 8461.834881 7464.963196 5619.870383 7043.786949 8458.873653 6769.370886 7392.158917 6891.395225 7987.053319 6675.227108 9188.620206 8337.606367 6576.196241 8296.033982 6515.038073 9043.791372 8724.995348 8737.206032 13281.543979 7218.531885 14482.912001 9356.021581 3636.820435 7107.398506 6950.100703 9147.684058 8685.630957 9528.329763 6700.449904 7629.576940 6848.989570 8000.936350 9019.773006 7550.723810 6578.751205 4855.449952 6678.714323 9002.053494 7360.608101 1819.856580 1820.087059 1820.273518 1820.426497 8246.481805 8219.821544 8161.150404 8071.477619 1716.077524 1716.307093 1716.492819 1716.645195 8217.047886 8196.176974 8152.101917 8070.226565 1614.277972 1614.506303 1614.691028 1614.842584 8186.220413 8168.238370 8124.650133 8040.530832 1514.439974 1514.666775 1514.850265 1515.000808 8151.712943 8137.892482 8107.487386 8054.771597 1416.543635 1416.768654 1416.950705 1417.100068 8109.890585 8100.892928 8089.039293 8085.092722 1320.567422 1320.790446 1320.970886 1321.118928 8056.366587 8052.127279 8055.140218 8064.573148 1226.488473 1226.709329 1226.888018 1227.034626 7988.681906 7977.098575 7947.604030 7918.116659 1134.282911 1134.501466 1134.678298 1134.823384 7913.365013 7902.763646 7882.656150 7849.516356 1043.926156 1044.142320 1044.317222 1044.460725 7832.942305 7816.847131 7787.742167 7778.395975 955.393249 955.606973 955.779904 955.921794 7753.781118 7741.877800 7719.710778 7711.615931 868.659171 868.870446 869.041402 869.181675 7674.660028 7667.781312 7656.137273 7654.632525 783.699166 783.908029 784.077038 784.215717 7590.962622 7590.435562 7596.091631 7596.649535 700.489067 700.695596 700.862722 700.999859 7497.581493 7492.613923 7478.890509 7453.742053 619.005619 619.209934 619.375274 619.510951 7396.000315 7388.463970 7379.841517 7358.876364 539.226799 539.429062 539.592749 539.727074 7287.483862 7267.815354 7230.637523 7197.577198 461.132135 461.332551 461.494750 461.627861 7179.121106 7152.080995 7096.134200 7055.024084 384.703021 384.901836 385.062746 385.194805 7076.044147 7050.993679 7011.479453 6997.305052 309.923020 310.120520 310.280372 310.411568 6980.268804 6961.504074 6956.899089 6989.819920 236.778162 236.974670 237.133728 237.264278 6895.036799 6870.849693 6839.476792 6856.687865 165.257229 165.453107 165.611662 165.741807 6830.011487 6797.957950 6735.472475 6728.129594 95.352027 95.547673 95.706046 95.836048 6793.671576 6760.946259 6700.323466 6696.795093 27.057644 27.253486 27.412026 27.542171 6786.831929 6762.677104 6712.824389 6685.216028 -39.627315 -39.430816 -39.271738 -39.141145 6800.226436 6791.615324 6771.787463 6744.089328 -104.700510 -104.502867 -104.342855 -104.211490 6816.753255 6828.369089 6860.450219 6859.875208 -168.155668 -167.956368 -167.795010 -167.662532 6817.477038 6836.874089 6885.873083 6882.242023 -229.982416 -229.780927 -229.617790 -229.483846 6796.998541 6804.928035 6829.873861 6820.377168 -290.166137 -289.961907 -289.796546 -289.660772 6769.443336 6755.682722 6718.545566 6684.367565 -348.687852 -348.480317 -348.312278 -348.174299 6755.498628 6726.055304 6645.097697 6609.246653 -405.524140 -405.312728 -405.141546 -405.000982 6765.081272 6742.885247 6694.448287 6694.003290 -460.647082 -460.431215 -460.256422 -460.112890 6787.593799 6782.063551 6789.980963 6818.266713 -514.024242 -513.803340 -513.624469 -513.477586 6806.257297 6797.497348 6779.774732 6764.181054 -565.618676 -565.392165 -565.208752 -565.058137 6820.508667 6806.061281 6769.559814 6715.982990 -615.388983 -615.156297 -614.967885 -614.813163 6833.972782 6817.521466 6791.260514 6738.093056 -663.289385 -663.049971 -662.856112 -662.696917 6848.813773 6819.975086 6743.234097 6636.653492 -709.269835 -709.023158 -708.823420 -708.659398 6871.001916 6848.022783 6794.543629 6690.102861 -753.276170 -753.021715 -752.815684 -752.646495 6893.476412 6875.439288 6843.357722 6765.933223 -795.250281 -794.987563 -794.774844 -794.600165 6910.384250 6892.896148 6868.679497 6812.959292 -835.130327 -834.858888 -834.639112 -834.458642 6924.227257 6898.289719 6841.453949 6773.171000 -872.850966 -872.570381 -872.343207 -872.156665 6946.253127 6924.805676 6878.889518 6828.706346 -908.343613 -908.053498 -907.818614 -907.625744 6978.759166 6974.970788 6976.434103 6987.447595 -941.536729 -941.236737 -940.993863 -940.794438 7012.783995 7029.642104 7078.759008 7162.827143 -972.356117 -972.045945 -971.794837 -971.588656 7037.585227 7073.629975 7179.128375 7332.458348 -1000.725249 -1000.404639 -1000.145088 -999.931980 7051.407362 7083.514990 7171.805392 7342.671386 -1026.565591 -1026.234331 -1025.966166 -1025.745992 7076.576245 7097.197748 7120.622393 7248.919189 -1049.796951 -1049.454876 -1049.177965 -1048.950617 7137.236838 7196.332818 7319.665584 7464.872290 -1070.337823 -1069.984818 -1069.699068 -1069.464470 7213.029268 7316.198329 7561.257640 7713.725934 -1088.105740 -1087.741738 -1087.447095 -1087.205203 7276.379171 7352.219442 7488.601098 7548.476621 -1103.017619 -1102.642602 -1102.339051 -1102.089853 7351.407067 7408.200314 7497.579236 7535.785867 -1114.990107 -1114.604103 -1114.291668 -1114.035184 7461.249603 7531.186711 7683.360157 7774.584609 -1123.939910 -1123.542993 -1123.221734 -1122.958014 7601.498314 7676.407590 7852.673872 7987.348567 -1129.784111 -1129.376401 -1129.046413 -1128.775536 7768.193193 7833.815798 7963.229847 8071.400903 -1132.440476 -1132.022131 -1131.683545 -1131.405617 7966.217588 8027.834464 8130.325210 8279.727814 -1131.827728 -1131.398948 -1131.051923 -1130.767075 8194.213278 8282.919874 8481.141854 8761.276526 -1127.865807 -1127.426825 -1127.071551 -1126.779938 8428.949751 8540.825666 8770.068778 9059.992068 -1120.476094 -1120.027175 -1119.663865 -1119.365663 8648.302934 8799.259699 9114.082917 9439.568283 -1109.581607 -1109.123041 -1108.751930 -1108.447332 8819.008137 9009.118357 9441.444254 9864.993672 -1095.107159 -1094.639258 -1094.260599 -1093.949812 8912.001163 9087.131603 9495.448001 9962.708802 -1076.979474 -1076.502568 -1076.116626 -1075.799866 8954.997612 9056.811707 9281.680313 9690.147960 -1055.127266 -1054.641693 -1054.248741 -1053.926232 9036.243257 9073.758167 9101.984562 9342.129078 -1029.481263 -1028.987364 -1028.587677 -1028.259645 9229.317621 9284.674356 9358.893173 9499.297833 -999.974177 -999.472290 -999.066140 -998.732808 9513.629050 9624.468484 9898.821918 10180.559142 -966.540621 -966.031070 -965.618721 -965.280302 9812.679536 9925.735440 10186.597934 10475.712009 -929.116956 -928.600047 -928.181743 -927.838437 10083.982551 10188.571034 10469.831982 10798.810673 -887.641067 -887.117073 -886.693037 -886.345027 10316.307615 10360.012396 10474.909120 10745.063317 -842.052056 -841.521214 -841.091642 -840.739084 10547.732928 10556.515481 10592.740701 10798.781426 -792.289848 -791.752352 -791.317413 -790.960438 10804.630558 10809.684230 10863.803846 11037.791764 -738.294691 -737.750693 -737.310537 -736.949259 11083.935156 11071.277185 11062.821742 11144.964783 -680.006521 -679.456154 -679.010963 -678.645501 11390.828390 11360.279341 11292.424602 11296.314352 -617.364167 -616.807618 -616.357719 -615.988281 11733.420406 11707.571986 11693.180560 11740.420183 -550.304303 -549.742005 -549.288174 -548.915251 12104.236267 12058.320153 11992.139318 11999.945650 -478.759964 -478.193082 -477.737285 -477.362144 12512.898878 12437.320323 12285.339339 12179.964479 -402.658205 -402.089823 -401.637005 -401.262874 12978.189511 12883.348359 12675.592584 12457.082893 -321.915898 -321.353888 -320.916278 -320.551208 13503.373201 13411.901006 13230.534718 13022.046111 -236.431261 -235.895224 -235.502663 -235.166330 14064.345636 13974.866181 13798.734884 13613.711384 -146.065312 -145.603417 -145.328094 -145.067931 14626.913686 14541.722032 14385.168234 14238.346773 -50.599011 -50.329444 -50.345096 -50.273870 15154.435073 15061.957497 14889.766438 14746.097412 50.369771 50.153544 49.430251 49.049853 15626.800463 15512.551576 15244.381009 14976.028410 157.685262 156.229000 153.803891 152.383998 16043.302523 15957.512680 15795.678604 15583.062005 273.335332 268.546077 262.087921 258.425538 16379.363934 16308.818228 16209.472746 16056.458586 402.608598 387.794445 372.216758 364.343809 16628.242893 16530.395612 16334.549178 16083.047151 562.630828 510.341940 478.992569 465.015553 16821.573902 16704.996974 16444.771759 16104.010616 15961.084397 15938.871607 16031.747028 16081.798312 15892.691010 15635.738700 15390.780683 15014.110857 14619.760388 14342.036087 14070.347737 13621.011521 13234.212234 12924.932562 12654.085294 12206.890192 11723.054877 11222.177273 10715.635250 10211.347767 9714.428237 9228.100106 8754.313404 8294.179639 7848.279006 7416.871566 7000.035280 6597.749777 6209.941753 5836.505070 5477.305660 5132.178671 4800.922896 4483.295597 4179.009434 3887.732128 3609.088831 3342.666797 3088.021657 2844.684509 2612.168795 2389.975493 2177.593904 1974.492194 1780.083995 1593.636980 1414.032582 1239.104414 1063.564775 871.059571 709.400987 620.677675 573.208305 553.355298 16982.154491 16882.124306 16679.943391 16403.519885 16218.039512 16189.640495 16266.718639 16272.386728 16158.184941 15979.892959 15718.554633 15382.092836 15029.961864 14676.374242 14303.654863 13893.694669 13477.787299 13074.054169 12661.178984 12208.645901 11723.160061 11221.996656 10715.955191 10212.304635 9715.927320 9229.994779 8756.472525 8296.505919 7850.707840 7419.363433 7002.567324 6600.308733 6212.518826 5839.092665 5479.895618 5134.761587 4803.488137 4485.831735 4181.504848 3890.175632 3611.470261 3344.977518 3090.255052 2846.836624 2614.239545 2391.971407 2179.534722 1976.426934 1782.130551 1596.082784 1417.608308 1245.830121 1079.942897 923.628031 791.798133 700.046788 645.788499 622.543034 17097.251660 17020.135466 16888.338954 16735.921824 16616.058977 16553.307976 16523.654688 16467.166664 16347.556371 16158.324637 15901.042280 15585.164066 15230.783124 14852.162811 14450.449502 14026.098964 13588.939774 13145.622548 12691.250180 12217.485149 11725.512613 11222.603440 10716.434620 10213.137720 9717.173508 9231.579137 8758.297319 8298.488842 7852.790329 7421.507847 7004.751010 6602.518239 6214.745396 5841.329207 5482.134957 5136.995689 4805.708000 4488.027667 4183.666941 3892.294297 3613.536751 3346.984430 3092.196906 2848.710743 2616.047868 2393.724657 2181.262309 1978.200647 1784.121098 1598.694250 1421.794464 1253.805422 1096.461497 954.443785 835.869290 747.919423 692.686222 668.281768 17145.994220 17078.038040 16973.169457 16854.241606 16752.304487 16680.391620 16622.360193 16543.678706 16415.364291 16224.324319 15969.243526 15657.830427 15303.484425 14917.764837 14506.814925 14075.095968 13628.630790 13171.564742 12703.127686 12220.849649 11725.636551 11222.147246 10716.330936 10213.594336 9718.137851 9232.929261 8759.914513 8300.280235 7854.691171 7423.476464 7006.762069 6604.556638 6216.801561 5843.395887 5484.205301 5139.062315 4807.762730 4490.061686 4185.671182 3894.259900 3615.455528 3348.849311 3094.002397 2850.453576 2617.728235 2395.348972 2182.849735 1979.798482 1785.840533 1600.790227 1424.828735 1258.906081 1105.409023 968.770636 854.950626 769.221804 714.318816 689.749841
</DataArray>
<DataArray type="Float64" Name="Velocity" NumberOfComponents="3" format="ascii">