<VTKFile type="PolyData">
<PolyData>
<Piece NumberOfPoints="2064" NumberOfVerts="2064" NumberOfLines="0" NumberOfStrips="0" NumberOfPolys="0">
<PointData>
<DataArray type="Float64" Name="Pressure" format="ascii">
 7185.874089 7171.269902 7144.495824 7109.268301 7072.884938 7043.723178 7028.055463 7029.223044 7047.707504 7079.817540 7119.290210 7160.200050 7198.410972 7231.637792 7258.863481 7279.728617 7294.157983 7302.186604 7303.890097 7299.360339 7288.699099 7272.017928 7249.439534 7221.098920 7187.143738 7147.733868 7103.040372 7053.244028 6998.533636 6939.104242 6875.155416 6806.889650 6734.510938 6658.223559 6578.231075 6494.735521 6407.936788 6318.032161 6225.215982 6129.679438 6031.610432 5931.193560 5828.610223 5724.039022 5617.656757 5509.640876 5400.175333 5289.464518 5177.766053 5065.466785 4953.252772 4842.460296 4735.667860 4637.262851 4553.056685 4488.385040 4446.366613 4427.240080 7181.982186 7166.584337 7136.844025 7096.177032 7053.379551 7020.328370 7003.044192 7004.338371 7026.790464 7064.995899 7109.981889 7154.712159 7195.069036 7229.339656 7257.045433 7278.134654 7292.674564 7300.763644 7302.505853 7298.006007 7287.371956 7270.718173 7248.168757 7219.859300 7185.937603 7146.563439 7101.907620 7052.150599 6997.480818 6938.092973 6874.186303 6805.963007 6733.626826 6657.381836 6577.431431 6493.977522 6407.219908 6317.355804 6224.579501 6129.082138 6031.051546 5930.672182 5828.125127 5723.588229 5617.236502 5509.243155 5399.782105 5289.034083 5177.201558 5064.545928 4951.483867 4838.849786 4728.623439 4625.335656 4536.615459 4469.559614 4426.908155 4407.784896 7180.214800 7162.562353 7126.386647 7071.810858 7012.597566 6972.867594 6951.236354 6948.529226 6981.424940 7035.909019 7093.753797 7146.632174 7190.950300 7226.851058 7255.260308 7276.662938 7291.349182 7299.512366 7301.297534 7296.827670 7286.218867 7269.589421 7247.065213 7218.782613 7184.889685 7145.546179 7100.922730 7051.199528 6996.564719 6937.212699 6873.342421 6805.155828 6732.856440 6656.648147 6576.734197 6493.316387 6406.594428 6316.765469 6224.023748 6128.560342 6030.562986 5930.215929 5827.699775 5723.191244 5616.862668 5508.880882 5399.404643 5288.578626 5176.519565 5063.285285 4948.811982 4832.830637 4715.080395 4599.024180 4497.850644 4426.293983 4383.631562 4365.140508 7182.928710 7162.595142 7119.168800 7047.515648 6968.823039 6923.836017 6884.752774 6861.717302 6918.368544 7000.366655 7079.075436 7140.910918 7187.806109 7224.825737 7253.721916 7275.345498 7290.138449 7298.358505 7300.178739 7295.734739 7285.148483 7268.541111 7246.039887 7217.781824 7183.915208 7144.599781 7100.006021 7050.313887 6995.711259 6936.392255 6872.555564 6804.402888 6732.137538 6655.963227 6576.083061 6492.698724 6406.009845 6316.213509 6223.503903 6128.072055 6030.105628 5929.788730 5827.301646 5722.820341 5616.515358 5508.549273 5399.070668 5288.199801 5175.994159 5062.364286 4946.861103 4828.099205 4701.975416 4554.725011 4425.543245 4353.921025 4315.707247 4299.590477 7192.899083 7170.401903 7122.587630 7049.682553 8660.208491 7055.952000 8905.033142 6988.684081 7475.823230 6768.102249 9692.504186 7494.076577 7565.601963 9439.808937 10741.908333 7184.015066 7345.913932 10744.352490 8338.079248 9696.957810 8149.732255 8330.285255 7324.426917 10677.257859 11189.610510 7156.447416 10721.817307 9067.665324 11128.571267 11293.564027 7107.622799 12167.993278 11473.232333 6596.308404 7161.900905 8130.165579 10849.092153 7200.935497 7055.989649 10619.707748 7084.319691 7096.512373 10643.048469 7209.863020 4295.625726 4251.799865 4225.942986 4214.317939 7211.570985 7187.504318 7135.229896 7063.379098 9068.082791 10672.160817 9739.328791 9634.000716 10270.806895 10919.962494 9618.227988 7164.742205 6887.885640 10664.780434 7063.700345 6797.467340 10850.144433 7461.072042 10599.399474 12348.468287 7143.498240 8746.393984 7064.592930 7196.872820 10949.788384 8421.081831 11660.871846 8395.566920 10572.662786 11184.094844 9517.707193 10213.102378 11068.375405 6798.595907 9017.320024 7033.839639 10939.885144 7132.526708 7112.947216 9932.003775 7702.083473 10373.102638 11077.336050 6888.679472 4147.452489 4134.652399 4121.463123 4114.694148 7237.282929 7215.192609 7164.934953 7094.165554 7693.775573 9429.673223 8315.109533 8634.857413 8238.760421 10463.894135 7017.779926 10465.276456 10673.145933 11493.367425 8810.574258 10746.001906 10627.481009 7261.495790 9983.824046 14373.835489 9724.585687 12293.623636 11397.918022 10435.819160 10679.377386 6866.734112 10956.506307 7072.021777 10013.229314 10770.292396 10635.758916 8720.549233 7337.501518 7208.536448 10357.822493 8116.820087 8569.431661 8450.269510 9156.318433 9046.339117 7111.668774 10798.315567 8445.519017 7574.777351 4020.090277 4015.604223 4009.871468 4006.520792 7261.995495 7248.215495 7228.880740 7202.021800 15183.428581 9987.420590 9315.116780 11161.189894 10759.408940 9591.609712 10778.143818 10942.662789 11094.484159 8181.692753 8809.936186 7372.672781 9742.979517 10066.481242 9622.501116 6758.499540 7506.336212 9536.058814 9259.087618 6907.795251 12087.561665 10022.161947 7409.705109 11113.681876 7047.291118 9813.588112 9840.597584 5911.225185 9116.400570 7181.285260 7194.747315 10915.735329 7031.298878 15313.433435 6888.574986 7559.798129 9038.065957 10715.695591 7089.397891 9235.761442 3899.769982 3898.054997 3895.645806 3894.139849 7271.505860 7260.778215 7256.440698 7235.898171 8179.511370 10867.284751 9692.302278 9512.253438 11102.026343 7381.723339 6915.242875 8850.738193 6608.321169 9826.983093 9235.802103 9111.012784 10198.314073 8637.139302 11059.820504 6979.471215 7279.641176 7644.776479 9688.511688 15413.962789 8868.971177 10285.073700 9680.942933 7275.767150 6375.711501 10352.543297 6968.416206 8741.369503 12942.855582 11125.790540 10986.818109 10618.008084 6183.044432 6738.467399 9295.942396 12315.452871 9744.570142 11407.951378 9826.893627 7097.813555 3782.370051 3781.700044 3780.707175 3780.068397 7258.673600 7236.116845 7195.602018 7130.374393 7419.300563 6845.736364 9220.099521 10260.300725 9059.521071 7379.088517 10631.157781 7845.879665 7011.143680 7097.837069 9264.855559 8239.754922 9351.001117 10129.475209 10050.968106 10172.039114 6871.476749 7908.874371 9780.174860 6825.554770 9019.348836 7357.320011 6176.666940 7203.618745 10492.232494 9423.201139 4071.918606 9438.114791 9633.567075 10974.932094 7047.624375 7190.160630 9607.535845 9036.651021 7945.681146 11500.802684 10248.443727 13237.798875 9706.422611 9708.462208 3666.469439 3666.221994 3665.829121 3665.576109 7234.088166 7199.359981 7134.881440 7069.436796 9717.409407 8653.809343 9091.077148 8837.396209 8822.687859 9078.470294 7932.890122 8424.928994 7516.805837 11217.166525 8444.024775 8412.098844 7471.267334 7562.068931 8702.486788 10858.080614 10581.643497 7410.319981 7320.568636 8046.734456 13111.206600 10881.485837 7024.461494 8502.145989 9170.256647 7269.748216 9859.794550 7205.145914 9410.602182 11002.500546 7190.135614 7312.236110 7597.508047 11484.547551 9838.427269 9395.894431 6803.878957 9353.980216 7252.612590 5984.874988 3551.567384 3551.499315 3551.362909 3551.279202 7214.964185 7173.442843 7095.707415 7037.402459 8031.787107 8065.750723 8569.876692 8168.714123 9176.698123 9614.455512 8081.421663 8669.720429 7971.353418 7395.105834 10664.623030 7010.177213 7117.159624 8014.294627 9266.662006 8559.195340 7612.069200 8485.359917 8329.636773 8273.694062 7691.048049 10985.183033 10656.374557 7488.336820 8094.209048 7332.995985 9920.432972 7223.104846 8518.229432 7110.235071 11058.330461 7987.548328 10245.718123 8959.204450 7133.524386 -1892.108974 9262.371545 11323.420472 4252.668569 11276.941846 3437.509943 3437.522387 3437.498308 3437.490232 7213.999137 7175.154144 7097.964695 7029.528432 8225.666174 8353.659142 8919.869305 8347.641130 9293.033673 10585.289011 9638.913499 9729.653245 8875.467003 6884.796043 6485.018137 8713.551397 7897.962715 7885.582324 8585.313700 7753.225583 8200.131704 8284.858688 9561.051065 8022.741750 8178.984629 8294.090109 8092.215868 9206.159424 7957.341876 7151.741369 8790.491877 8304.001378 7617.076133 9513.102861 6614.459504 7851.565925 9214.977387 10983.727165 6718.111719 6634.394059 8495.729032 9700.699631 10393.922904 7318.074896 3324.279485 3324.331377 3324.359067 3324.386678 7232.188325 7205.709790 7158.646108 7106.942792 11114.791942 8122.569075 8751.877385 7586.275525 9151.590922 10596.847873 9072.975963 8832.186856 8528.854342 7519.397218 8983.035416 7801.995263 8893.191041 10649.246406 9200.941791 9088.574349 8775.082373 9512.145619 7921.978352 8042.022813 7302.966767 -9604.232229 7095.445728 8823.283110 7835.776167 8618.733604 8356.838879 9396.642741 9805.563649 10291.536252 7503.612086 9216.034274 8442.940320 9004.232555 11258.333624 6630.424374 7521.729938 7481.513195 10029.367342 9465.767587 3211.911861 3211.985849 3212.039741 3212.086035 7260.515968 7245.381036 7216.556038 7169.299247 9137.802073 9006.887595 8543.751474 8680.023599 8454.237564 8251.468528 9225.154838 9791.463267 8941.282766 8154.947015 8625.979389 7380.812987 8202.055369 8850.864208 8003.057996 9161.133186 9608.238139 9074.277257 8231.630453 6987.842121 8910.192328 8636.411267 9586.828147 8239.372392 9623.030713 10043.545778 9362.578044 9148.092018 10850.944622 7253.962636 7443.982533 10274.229761 7753.875955 6478.667947 9499.102083 8902.927013 9636.487879 10822.532527 10789.094175 10988.278540 3100.462766 3100.551336 3100.620514 3100.678174 7289.306440 7285.291145 7278.278655 7230.548637 8358.114537 9893.509525 7324.899596 11212.036830 6881.262371 7143.415724 11847.062490 7168.317271 7376.925285 8852.475853 7024.076288 8913.161703 11361.014728 8856.230359 9012.738423 8204.727237 8263.270905 9630.676593 9662.454927 8400.004009 8250.264801 10371.978680 9269.673674 11286.401896 10588.896168 8776.844308 10914.569594 9236.502639 8742.012563 9352.067948 9000.050694 7872.461558 6722.494598 8435.011688 8442.980878 7219.819036 10522.386073 4339.184102 5628.971133 9979.049263 2989.993910 2990.093659 2990.173341 2990.239128 7309.025721 7311.471356 7325.963005 7319.503623 7715.966321 9112.017537 9845.264970 7673.837743 11075.996735 8732.170746 10639.309883 10199.986293 5161.067642 8627.578514 7276.712525 8340.836181 9089.984563 9233.715052 11030.530614 7971.849341 9863.528020 6947.058936 8097.990626 9883.910864 9934.219840 9268.568414 7682.120691 8002.713041 9196.891969 9219.448848 8964.922823 7710.450368 8283.059780 11139.852653 9601.715959 7591.847162 7884.913134 8979.233200 7456.699254 8361.912171 8119.471497 8510.213969 9873.218076 9905.031008 2880.567351 2880.676600 2880.764578 2880.836966 7313.184185 7313.967666 7324.619883 7336.292007 9410.197504 12687.818621 7742.719662 9964.417566 6838.455469 8396.083805 7356.211360 8784.646230 11289.205553 9392.467647 5946.669025 7819.834673 9418.965758 6716.917412 12170.845304 6311.392819 9609.346713 7281.801664 9803.743837 11125.420646 8509.836565 9168.541245 7003.034829 9324.099794 9502.309228 7911.819781 8322.718736 11385.026859 9214.176367 11113.316548 8614.085331 8847.052144 6699.578631 7881.646996 10761.556980 10489.644142 8702.734929 7573.712318 7728.226359 8266.744059 2772.243212 2772.361012 2772.456166 2772.534354 7301.696438 7295.527976 7287.609704 7278.292470 10543.263626 8010.332233 10129.664602 7090.406240 8371.755188 11087.655020 8261.972418 10169.203060 7590.926287 6823.161030 9624.190912 9662.435782 8764.392873 9694.075039 10669.743892 8904.156077 9956.836957 9407.646068 2726.819050 9858.622418 9648.410504 8918.742999 9205.549971 8300.001406 10515.161970 7428.868919 8765.162515 12140.634920 8165.389709 8364.236923 9380.619058 8428.175105 9407.336846 8568.952213 6613.908183 8688.270810 8333.247258 8749.231566 8515.547230 8517.867994 2665.078817 2665.204538 2665.306209 2665.389706 7280.304137 7262.700442 7222.413226 7190.735392 9602.063619 10414.296401 10602.656714 13553.736424 7146.534673 6649.353481 10853.656080 9589.067011 6889.386642 9067.151765 9008.042179 9670.723662 359.839467 10264.843849 10127.667495 8875.426038 8696.843172 7203.384155 10493.847549 7045.656446 6872.564965 12489.458792 10155.932853 9160.801160 10274.947241 12471.860762 8117.758047 10984.734537 8725.846532 11061.266209 10293.938382 7151.266283 7159.210017 9492.165777 8377.880993 8889.299176 8667.518298 11261.729114 8367.316517 8741.552090 2559.128430 2559.261585 2559.369315 2559.457768 7258.527325 7236.539503 7181.421737 7135.872456 10062.065736 7653.260850 8010.037894 10605.458025 6642.635100 9458.501853 8389.990078 8056.844515 7227.398599 7024.884524 7114.724252 7413.349978 11306.536973 9824.681240 9957.785782 7393.593249 7152.724819 7094.686468 9451.222653 8935.050755 7964.611747 9620.578598 11139.073430 8868.794693 6297.156441 8882.074790 9573.326333 6728.241953 7152.689218 9091.741594 7149.700606 8224.451183 9894.958846 11192.531473 6683.732954 10928.872681 9418.322205 7646.963351 10136.999230 9343.964716 2454.443237 2454.583410 2454.696837 2454.789956 7239.567552 7227.569945 7210.444760 7195.941938 7656.783483 8954.708911 9310.452701 11061.451930 9023.903465 6719.039461 -9599.956484 10438.712430 12345.358062 7888.625105 10695.263687 -41.936702 9785.616953 7309.333452 8315.617070 10513.360673 9806.365400 10487.451956 11373.850407 9795.675960 6078.789710 9046.159484 7321.233578 9159.825917 10285.160576 8704.430589 9686.699873 12701.685145 6719.343295 10938.313489 6995.470984 10970.486056 9313.144495 9423.654708 6687.160700 8358.326355 9860.853936 8655.941514 6856.112308 11147.245633 2351.071444 2351.218259 2351.337069 2351.434602 7215.475469 7209.211555 7211.089807 7209.335296 12264.615228 9596.694691 11304.433274 7999.560484 13179.598412 11028.761762 8549.872847 7212.703994 9308.045928 9123.624049 11760.318812 7286.732138 7881.988341 9390.810079 2709.962024 5871.012489 10848.516960 8874.377153 14148.790139 8844.989713 9048.359405 9370.597559 5716.231020 8787.841679 8745.088659 9950.107267 12192.396949 9817.307603 11300.118964 7362.726769 9100.656958 7193.738947 7074.117984 9066.660808 10950.848922 12927.351016 8055.594350 12181.029277 7063.121781 10314.240791 2249.058416 2249.211528 2249.335437 2249.437152 7182.447157 7169.289148 7149.440048 7125.314888 11427.765161 6958.222299 9857.837133 6404.574261 998.036471 8767.982968 10322.150263 10399.830858 11463.103199 6977.119975 9817.708462 9598.470482 6802.042888 10290.863663 7902.229654 12040.873626 7058.455500 7248.952931 7364.040802 11025.958847 10596.962101 9963.816728 8196.937942 6435.519415 11924.424051 11505.957310 7153.619000 7037.922979 8203.427236 9758.701237 9937.594819 8974.059311 7088.021548 6999.293859 9672.033865 11453.359725 6600.238586 11022.831194 8343.045319 9382.853827 2148.446840 2148.605930 2148.734677 2148.840361 7149.449922 7123.423597 7077.001140 7031.937752 2049.276905 2049.441673 2049.575017 2049.684472 7133.862664 7091.108212 7001.390476 6920.694292 1951.586470 1951.756642 1951.894360 1952.007403 7156.075616 7102.955397 6977.799937 6865.028637 1855.411254 1855.586576 1855.728462 1855.844925 7227.587183 7187.181938 7097.136515 7004.196554 1760.785011 1760.965250 1761.111116 1761.230846 7337.481130 7318.349677 7282.964696 7233.754553 1667.739710 1667.924656 1668.074333 1668.197190 7464.087070 7464.462102 7483.661696 7486.474579 1576.305719 1576.495184 1576.648518 1576.774376 7589.119163 7590.104273 7591.202714 7582.728206 1486.511977 1486.705793 1486.862650 1486.991399 7709.903293 7719.719059 7738.161284 7745.530819 1398.386173 1398.584194 1398.744454 1398.875996 7820.245593 7843.126850 7910.082684 7980.942554 1311.954914 1312.157013 1312.320575 1312.454828 7911.833421 7924.711933 7966.609626 8038.193409 1227.243893 1227.449965 1227.616744 1227.753637 7994.868186 7988.344767 7985.081356 8046.747833 1144.278058 1144.488017 1144.657943 1144.797419 8089.993218 8073.410871 8058.158234 8135.206948 1063.081764 1063.295543 1063.468563 1063.610579 8210.981446 8198.288626 8197.996409 8267.347715 983.678934 983.896486 984.072560 984.217084 8358.417557 8340.871833 8307.174425 8342.476972 906.093204 906.314499 906.493603 906.640616 8531.565563 8524.877833 8524.613058 8592.681376 830.348071 830.573096 830.755221 830.904714 8716.788177 8731.072283 8792.913282 8899.068261 756.467029 756.695789 756.880938 757.032914 8897.628573 8910.174306 8942.574116 8997.975362 684.473703 684.706218 684.894408 685.048881 9079.722885 9086.086906 9090.092086 9104.244704 614.391974 614.628280 614.819539 614.976532 9274.812934 9287.063581 9301.009402 9328.030119 546.246104 546.486249 546.680619 546.840166 9480.883567 9514.882660 9589.936123 9659.565614 480.060843 480.304893 480.502424 480.664566 9681.202741 9719.815428 9797.623210 9897.300231 415.861546 416.109577 416.310331 416.475120 9869.602191 9911.173287 10003.796167 10128.684663 353.674270 353.926369 354.130418 354.297913 10044.318670 10081.689216 10162.205904 10277.839042 293.525869 293.782137 293.989562 294.159828 10207.943016 10242.332074 10307.634914 10398.725965 235.444087 235.704635 235.915524 236.088636 10359.617489 10406.158951 10504.303952 10616.499157 179.457643 179.722590 179.937041 180.113077 10482.963487 10543.019320 10670.991225 10817.664266 125.596303 125.865778 126.083895 126.262942 10554.630056 10631.390895 10828.339064 11043.646077 73.890960 74.165100 74.386994 74.569142 10554.060271 10621.739971 10828.004124 11099.489367 24.373695 24.652644 24.878432 25.063777 10495.115712 10503.114026 10533.631503 10742.850636 -22.922159 -22.638249 -22.408445 -22.219802 10442.567263 10433.013674 10406.659071 10542.524536 -67.961959 -67.672931 -67.438984 -67.246939 10435.432622 10467.646986 10548.952685 10682.393705 -110.709701 -110.415393 -110.177171 -109.981617 10449.607313 10544.715939 10786.875890 11003.133426 -151.127975 -150.828220 -150.585588 -150.386413 10429.604876 10541.510442 10834.982240 11097.815408 -189.177918 -188.872544 -188.625364 -188.422455 10357.141621 10408.553984 10521.376102 10695.711342 -224.819177 -224.508010 -224.256140 -224.049382 10285.304738 10306.394691 10334.642518 10455.173192 -258.009876 -257.692738 -257.436035 -257.225308 10252.574151 10300.173396 10398.433759 10517.115000 -288.706578 -288.383289 -288.121607 -287.906793 10239.844805 10319.769450 10520.920859 10689.990202 -316.864265 -316.534643 -316.267835 -316.048813 10211.988245 10276.674361 10430.561650 10596.870949 -342.436306 -342.100168 -341.828086 -341.604734 10167.266595 10207.921427 10284.190249 10398.661453 -365.374438 -365.031600 -364.754095 -364.526291 10114.345308 10161.194066 10285.758293 10429.444957 -385.628750 -385.279028 -384.995950 -384.763573 10040.704196 10077.971460 10193.066738 10338.332104 -403.147663 -402.790871 -402.502073 -402.264999 9946.554463 9954.159016 9985.366920 10029.195075 -417.877917 -417.513874 -417.219207 -416.977315 9855.189270 9820.379867 9717.825591 9629.971408 -429.764569 -429.393092 -429.092408 -428.845579 9798.666777 9764.934811 9682.273760 9578.480916 -438.750978 -438.371888 -438.065042 -437.813155 9769.675090 9762.557290 9777.785617 9761.445651 -444.778810 -444.391929 -444.078778 -443.821715 9731.170969 9728.617572 9732.333850 9720.023910 -447.788037 -447.393191 -447.073594 -446.811241 9662.030197 9665.483782 9693.493505 9704.347887 -447.716946 -447.313965 -446.987785 -446.720028 9555.462532 9548.021461 9549.921086 9559.864401 -444.502149 -444.090868 -443.757972 -443.484703 9429.885247 9410.370085 9391.430246 9395.326346 -438.078604 -437.658865 -437.319124 -437.040239 9317.087419 9281.126619 9203.272874 9158.944963 -428.379641 -427.951292 -427.604585 -427.319982 9247.756786 9221.465597 9177.374629 9128.164777 -415.336993 -414.899891 -414.546102 -414.255687 9217.795215 9198.143201 9173.150434 9129.909394 -398.880840 -398.434853 -398.073874 -397.777559 9206.976019 9182.335347 9135.286744 9066.981712 -378.939865 -378.484871 -378.116604 -377.814309 9202.178803 9178.959546 9129.659567 9037.649629 -355.441313 -354.977204 -354.601562 -354.293216 9190.861696 9170.461155 9127.322975 9042.862289 -328.311076 -327.837759 -327.454667 -327.140210 9162.160167 9142.982150 9103.100946 9031.276045 -297.473781 -296.991180 -296.600579 -296.279960 9110.094695 9093.781974 9071.935779 8997.977502 -262.852904 -262.360964 -261.962809 -261.635993 9034.502347 9002.942411 8938.500112 8834.885247 -224.370895 -223.869585 -223.463849 -223.130815 8953.751822 8909.214961 8811.212550 8656.359755 -181.949334 -181.438645 -181.025325 -180.686069 8891.198941 8832.602895 8706.092714 8566.652293 -135.509095 -134.989050 -134.568164 -134.222703 8868.878069 8811.886896 8708.643374 8608.567551 -84.970552 -84.441206 -84.012799 -83.661170 8893.080951 8830.910049 8675.720702 8476.647703 -30.253799 -29.715244 -29.279392 -28.921659 8964.570426 8922.829222 8834.314110 8672.257295 28.721095 29.268725 29.711909 30.075656 9063.383433 9042.657701 9015.659169 8931.452164 92.033799 92.590321 93.040682 93.410315 9166.696830 9151.648078 9123.301867 9049.347652 159.763411 160.328579 160.785902 161.161249 9264.687748 9253.401992 9237.202734 9186.071700 231.988111 232.561595 233.025577 233.406401 9353.253514 9341.122994 9327.318142 9276.148919 308.784804 309.366146 309.836328 310.222281 9435.032697 9408.305888 9347.902550 9263.680781 390.228791 390.817295 391.292910 391.683429 9523.139657 9489.777351 9407.240389 9300.504119 476.393518 476.988010 477.467620 477.861686 9623.763951 9597.127433 9535.990093 9439.173174 567.350636 567.948887 568.429524 568.825093 9731.618346 9714.986373 9701.151331 9650.077814 663.170813 663.768171 664.243290 664.635926 9842.865097 9809.640579 9739.554448 9652.052274 763.926430 764.512548 764.967142 765.346779 9974.878305 9927.471717 9810.330157 9676.054018 869.698872 870.249845 870.648774 870.992016 10143.239180 10102.431414 9999.276570 9867.643206 980.596934 981.056289 981.316381 981.568320 10342.005138 10330.311210 10311.781725 10257.209386 1096.802339 1097.034331 1096.957732 1096.989669 10543.340958 10552.002745 10582.519034 10588.554457 1218.682637 1218.353792 1217.469048 1216.983495 10725.218615 10739.061440 10772.855770 10797.247505 1347.078925 1345.337023 1342.523540 1340.857879 10881.800447 10894.658826 10914.252342 10941.247298 1484.089814 1478.576866 1471.213955 1467.017288 11013.528642 11039.461041 11109.472331 11179.326859 1635.491323 1618.673266 1601.059078 1592.132444 11111.681513 11136.839326 11201.213322 11281.703083 1820.290978 1761.298865 1726.046578 1710.301607 11175.841008 11191.409795 11224.496928 11282.880381 11363.705999 11350.310135 11032.547721 10931.087298 10949.250201 10747.429189 10582.730457 10388.744527 10180.020172 10051.692172 9956.860612 9859.924722 9759.139496 9638.407313 9503.270606 9354.770601 9193.706855 9020.959923 8837.543956 8644.566760 8443.174620 8234.504525 8019.649644 7799.637730 7575.420077 7347.868246 7117.776037 6885.864664 6652.789575 6419.147822 6185.485247 5952.303035 5720.063399 5489.194319 5260.093343 5033.130535 4808.650672 4586.974780 4368.401073 4153.205216 3941.639552 3733.930303 3530.270159 3330.799997 3135.564345 2944.401887 2756.667776 2570.478450 2380.360488 2168.207545 1987.997175 1888.787765 1835.708719 1813.462572 11213.898402 11222.500473 11241.893021 11271.169340 11285.542223 11227.004996 11066.780022 10946.348712 10847.604114 10705.160156 10552.695202 10391.546797 10235.703682 10101.476832 9985.825163 9875.767020 9761.781158 9637.713459 9501.307516 9352.361340 9191.215973 9018.562443 8835.324500 8642.563024 8441.398602 8232.953858 8018.314115 7798.503217 7574.470984 7347.088993 7117.151929 6885.382341 6652.437180 6418.914992 6185.362996 5952.283574 5720.139938 5489.360869 5260.344541 5033.461500 4809.056915 4587.452204 4368.946133 4153.815439 3942.314870 3734.676276 3531.105725 3331.776141 3136.809741 2946.238291 2759.922536 2577.447457 2398.426003 2227.484156 2081.961612 1980.195019 1919.857178 1893.929918 11233.297574 11236.403955 11241.788879 11241.476324 11218.467078 11152.370689 11047.986934 10933.008835 10814.448950 10683.282069 10541.841998 10396.453290 10254.921806 10123.808728 10002.548477 9885.280831 9765.451894 9637.996861 9500.056247 9350.480298 9189.143531 9016.512029 8833.399528 8640.810994 8439.837468 8231.585560 8017.131955 7797.496111 7573.625995 7346.392859 7116.591948 6884.946850 6652.115756 6418.698484 6185.243441 5952.254061 5720.194443 5489.494091 5260.551751 5033.738431 4809.399707 4587.857460 4369.411216 4154.339275 3942.899957 3735.333512 3531.865912 3332.717339 3138.122236 2948.378562 2763.974594 2585.933742 2416.768453 2262.295955 2132.220005 2035.196506 1974.037809 1946.914324 11240.186209 11240.317956 11238.820150 11227.340648 11193.752380 11128.634747 11034.713132 10924.205400 10804.101202 10674.812516 10538.168525 10398.755902 10262.202073 10132.462510 10009.388260 9889.162984 9766.672607 9637.461065 9498.589765 9348.610683 9187.162132 9014.573440 8831.583726 8639.156837 8438.360484 8230.287803 8016.007771 7796.535698 7572.817651 7345.724400 7116.051576 6884.523636 6651.799874 6418.481262 6185.117311 5952.212445 5720.231607 5489.604992 5260.731900 5033.983776 4809.706565 4588.222530 4369.831748 4154.813593 3943.428784 3735.923159 3532.535864 3333.518056 3139.176273 2949.972096 2766.743964 2591.162664 2426.491093 2278.282008 2153.796618 2059.484429 1998.834192 1971.576642
</DataArray>
<DataArray type="Float64" Name="Velocity" NumberOfComponents="3" format="ascii">