<VTKFile type="PolyData">
<PolyData>
<Piece NumberOfPoints="2064" NumberOfVerts="2064" NumberOfLines="0" NumberOfStrips="0" NumberOfPolys="0">
<PointData>
<DataArray type="Float64" Name="Pressure" format="ascii">
 5510.062745 5471.999021 5387.671147 5250.873801 5058.737592 4815.607376 4536.265761 4243.291868 3966.557304 3727.818628 3528.298932 3359.034721 3211.082067 3077.853865 2954.610801 2837.805131 2724.692822 2613.144652 2501.557617 2388.802972 2274.179398 2157.359318 2038.327232 1917.313867 1794.731191 1671.112697 1547.061881 1423.210325 1300.185514 1178.587621 1058.974021 941.850017 827.664342 716.808081 609.615909 506.368764 407.297293 312.585630 222.375192 136.768347 55.831847 -20.399968 -91.922205 -158.756623 -220.948948 -278.566174 -331.693589 -380.430997 -424.886873 -465.167679 -501.356536 -533.471753 -561.401307 -584.853334 -603.436525 -616.898488 -625.257722 -628.848452 5536.502876 5502.185722 5425.411631 5299.364896 5115.995942 4872.865468 4583.213793 4263.592720 3963.556028 3721.190023 3525.468426 3358.969288 3212.111206 3079.055131 2955.581757 2838.416800 2724.941268 2613.081995 2501.259028 2388.349363 2273.647541 2156.816198 2037.827244 1916.898046 1794.427844 1670.938908 1547.025451 1423.311816 1300.420174 1178.947072 1059.447629 942.425960 828.330388 717.552122 610.426301 507.234521 408.208178 313.532174 223.348681 137.760776 56.835879 -19.391063 -90.914602 -157.756021 -219.960709 -277.595601 -330.746576 -379.515535 -424.016544 -464.369450 -500.686498 -533.038787 -561.366207 -585.317490 -604.250443 -617.759895 -626.011647 -629.530022 5594.658047 5566.761428 5504.325250 5402.985432 5248.663993 5004.322120 4703.054464 4297.673199 3924.659571 3696.061649 3516.780278 3356.438465 3212.118975 3079.768981 2956.324086 2838.941698 2725.187218 2613.068123 2501.038608 2387.987264 2273.208389 2156.357953 2037.397955 1916.534687 1794.156540 1670.776027 1546.979153 1423.383760 1300.607168 1179.242542 1059.842838 942.910969 828.894769 718.185454 611.118498 507.976021 408.990043 314.346122 224.187074 138.616597 57.702683 -18.519193 -90.043120 -156.890016 -219.105093 -276.755530 -329.928424 -378.729226 -423.281137 -463.726519 -500.231842 -532.993800 -562.199566 -587.511115 -607.418463 -620.797499 -628.569464 -631.803397 5678.486304 5657.793615 5608.610232 5531.134915 5427.010373 5140.745044 4894.949233 4235.904952 3769.551763 3683.293734 3509.753837 3356.326303 3213.050431 3080.897621 2957.271980 2839.587173 2725.521187 2613.130191 2500.888154 2387.689219 2272.825407 2155.945843 2037.003200 1916.193486 1793.894973 1670.610979 1546.919684 1423.432645 1300.762420 1179.498784 1060.192472 943.345101 829.403908 718.760017 611.749138 508.653831 409.706666 315.093793 224.958627 139.405438 58.502757 -17.713442 -89.236802 -156.087868 -218.311612 -275.975260 -329.166626 -377.993480 -422.585314 -463.100996 -499.751841 -532.869266 -563.130503 -592.374737 -614.489004 -626.342653 -632.752112 -635.373628 5779.855696 5767.971128 5723.225295 5611.250363 5416.318414 5397.866961 4468.236188 6082.599034 5481.253137 5485.015431 6184.668207 6714.270048 6075.164917 6216.787518 6086.103586 5515.497741 5185.454839 6243.268786 6360.486498 6483.878723 5897.402572 5051.228729 6171.890600 4756.703085 6553.052561 5518.112204 6617.785638 4129.844042 6147.820961 6173.253578 6474.615888 4829.503797 6184.282070 6211.154908 4705.584663 4916.179694 5864.241701 4081.546560 4561.751039 5252.173635 5322.048035 4946.783159 4500.705389 4049.310845 -627.620140 -633.891966 -637.856633 -639.582138 5889.895742 5896.403736 5888.323183 5761.640961 5481.016163 6295.452258 6362.147571 5834.193520 5958.447959 5780.502285 5811.016423 4737.047964 6225.648053 4638.367544 6313.981918 5605.822445 5937.044867 6344.881900 6432.251526 5416.056514 6873.121740 6050.543686 6346.795587 5257.843282 6260.508351 5697.731284 6491.930090 7161.338927 6146.592289 6213.313288 6301.008107 6423.830843 6114.947936 5729.860302 6592.586453 5611.262834 7362.791260 6888.434753 3626.261988 5138.753277 4251.771935 5386.847328 4424.954233 5280.390738 -639.181672 -640.794438 -642.619634 -643.496886 5995.121831 6022.219301 6107.733576 6198.359241 6207.202347 6127.752658 5324.266482 5176.386757 5443.247810 5551.172008 4761.522389 5744.054350 6030.675844 5755.388218 5809.187488 4990.573237 6103.863107 4737.805341 4843.540899 5217.864954 5333.190662 5275.745300 5660.430268 5312.801415 4812.098078 5591.727276 5561.014709 5352.601405 6320.043709 6374.564758 6457.807431 4766.403289 5934.504814 6447.445398 5384.343365 6243.756044 5071.653938 5281.423949 5597.320801 4975.059994 6289.620564 5702.697033 4480.302529 4543.459385 -644.902412 -645.275308 -645.920120 -646.242398 6086.078022 6107.938294 6147.315120 6196.000007 5905.604858 6112.974271 4108.667758 6500.510627 5399.302538 4979.236357 5485.090627 4660.413271 5082.530316 5161.742906 5419.458395 4531.413495 4671.882356 5470.884015 6098.218898 6413.400674 4687.314250 5053.133044 6429.930581 5596.958714 5778.663233 6474.219832 5168.392671 4679.251205 6236.580683 6216.624272 4636.747334 5379.805642 5603.108672 6144.690651 4339.065825 5662.554029 5544.695301 5080.902559 6114.836707 5931.611292 5985.533801 4996.282493 6099.844151 5261.561265 -647.119343 -647.084724 -647.220004 -647.258560 6174.792540 6197.976077 6207.809698 6128.486267 5471.295542 4936.510090 4740.550480 4837.307901 3963.682739 4030.614665 5252.709087 4813.310236 4493.093122 4924.033052 5061.355542 4878.824092 5267.907246 4928.943057 4729.622597 5088.542233 4638.383227 4434.558561 4922.027126 4819.838722 5219.680274 4470.763249 6157.638993 4448.421314 5457.135082 5410.626701 4967.167381 5027.384094 5471.073850 3853.792821 5065.724854 5688.229571 5635.418428 4782.587411 4833.578490 4405.810791 4453.754843 4325.699832 4513.905218 7087.360696 -646.637774 -646.461458 -646.390274 -646.304704 6271.081694 6314.839280 6416.147225 6530.812951 4546.139951 4836.971435 5147.033246 4640.011550 5207.617258 4797.490031 4592.819989 4884.580752 5343.307573 4108.478282 4934.116168 4764.930578 5507.197890 3659.935241 4254.579472 5129.590643 4581.443196 4936.747766 5112.530261 4715.714710 5057.113364 3922.248382 5227.934742 3831.285556 4500.065615 4651.362915 4290.497207 5131.802729 5295.857405 4377.734661 4792.265755 5708.567788 5424.423109 5131.632999 4659.897998 5252.552680 4413.637122 4887.638262 4556.229728 5062.175005 -643.845050 -643.623195 -643.474097 -643.341059 6369.149381 6418.710485 6448.409151 6442.308838 4839.115248 5286.064600 5319.197728 4935.007151 4352.467353 4637.517505 4233.775249 5152.349474 4664.117782 4633.139350 5029.670525 4659.401082 4470.385128 4985.561878 4869.582357 4080.609093 5140.417204 4234.805513 5441.518125 4539.058329 4981.727250 3957.960383 5299.539683 4678.823377 3253.386012 3910.439548 4864.810967 3626.236562 5541.962060 4387.805679 4517.760579 3697.600390 5769.078573 4206.830875 4623.482124 3520.352121 3744.637663 5192.326054 5622.692825 4816.812985 -638.976488 -638.746118 -638.572496 -638.425706 6456.379532 6514.782761 6451.629598 6138.649969 4103.264256 4196.992234 7438.075875 4743.885542 4444.611576 6703.867817 4006.710522 4851.049263 4982.188337 5041.194206 4637.830511 4701.024720 3788.055624 4233.678454 5082.204709 4747.141617 4239.595688 4459.903194 4296.854795 4639.225952 5171.952113 5851.823589 5745.465676 4940.253013 5786.090415 4565.196399 5300.587917 5123.059997 4407.862444 3488.565046 4606.676766 3836.483345 3971.543977 3585.417016 3400.270473 3720.754457 4728.787933 4143.498452 3782.522799 5327.912474 -632.203863 -631.979292 -631.802903 -631.656396 6495.474055 6553.801231 6425.925669 5900.666587 6927.403247 4466.169043 23797.816943 10264.631400 5700.074969 20410.922073 19071.744971 9649.528266 6855.674370 7237.381951 5440.220079 6400.113440 5726.482070 4099.320046 4241.072251 4000.084184 4197.379794 5171.515498 4758.058395 4098.469404 4885.741345 4955.872124 5059.679407 5336.005119 4898.002105 4907.134459 4229.948251 5535.370333 5199.099386 5325.014825 4811.425537 5127.020691 4156.079811 4823.401685 4556.626890 4147.150665 4051.121240 3514.507794 3452.232173 3059.365942 -623.667771 -623.454160 -623.283500 -623.142732 6463.260637 6515.716711 6523.213001 6378.189288 28449.837147 17054.499867 1004.664080 24065.303164 27604.910889 16439.338927 21877.695044 28372.813905 23856.226748 24039.199294 21928.343190 14014.326414 12404.970229 6870.815757 13480.442405 5294.418198 4782.057986 5432.860343 3918.584640 4284.548907 4248.370670 4257.917787 5185.522539 5218.982693 4724.103807 4303.054425 4991.962891 4115.228372 5187.577214 5233.163965 4724.336369 4821.903281 4476.608905 5419.669168 5326.885675 4648.327004 4363.737171 3525.777289 3689.155917 2690.677980 -613.490157 -613.288883 -613.126885 -612.993646 6383.627584 6414.160337 6442.820935 6438.523858 24324.147658 26414.580355 1754.831976 15384.033190 26251.932861 3916.034661 7487.607444 20268.951725 22082.756623 28850.633195 589.912410 24471.150812 21611.711192 25629.308875 25245.821040 12909.670307 21040.393090 15068.392500 12052.743635 8791.359727 7963.305765 5001.977947 4159.163159 5037.787579 4250.163180 4667.916721 4858.301185 4166.638300 4348.664271 4355.265894 3808.662805 4313.116330 4866.845254 4053.395267 5297.669194 5428.928414 4610.199939 4594.891937 5493.664712 4525.004609 -601.779214 -601.590067 -601.437321 -601.311840 6294.686054 6302.039142 6308.479784 6348.789519 8416.183986 23302.599901 576.585927 3721.252667 6483.211293 960.842302 2458.523059 11128.009547 27263.933036 28098.394171 1455.118907 22657.316944 22797.443763 14359.113689 20573.207959 18883.936798 21336.070595 23500.139826 25215.273016 25408.772568 22977.527238 15448.546055 5672.785246 13425.760644 7336.025391 5814.997501 5481.488935 4548.712083 4498.390801 4330.305466 4513.696336 4856.331822 4979.618822 4782.945375 4465.552504 4444.119677 4700.289721 4621.456600 5412.856068 5610.831401 -588.631219 -588.453296 -588.309385 -588.191212 6216.680014 6212.581892 6132.209244 5921.064422 16128.821694 1195.638000 -1064.559912 -102.935153 23412.012755 23.929690 -696.523738 12849.929485 2430.056114 2133.430602 4870.648806 9986.272472 4004.141207 4099.707675 3076.095011 16028.360763 3366.524539 12100.616404 26541.357911 4561.739739 14987.855166 19895.372252 26195.864121 24658.083287 23305.630210 14458.690769 8369.342717 16829.521495 18731.389512 10922.940047 4693.427256 4065.007815 4526.103728 5121.578039 4688.289932 4229.622750 4460.517647 4277.086864 4466.952044 3538.686220 -574.130967 -573.963013 -573.827049 -573.715406 6145.331096 6167.120971 6298.200340 6566.005003 409.732525 5077.663880 -778.261170 7816.933746 601.055947 13120.273769 13517.848913 7036.675845 230.393808 14406.916800 4246.128220 2680.107716 -726.874520 5862.444653 8629.179135 847.386643 4670.671924 2108.686335 10331.632490 413.030204 14347.962995 5564.120519 7261.291168 20058.438751 23305.438013 16501.843467 19036.892585 20100.728527 26920.801539 19001.658746 19040.032757 9892.541211 5364.981486 5564.682973 4539.217410 4248.847749 5040.018458 4560.772377 4501.575564 4186.133751 -558.351316 -558.191815 -558.062611 -557.956493 6054.951220 6052.652774 6047.238519 6197.336448 1075.369081 1500.957923 944.810233 -8.301609 1089.178712 1827.785864 -422.962920 127.612317 1130.690087 -1516.677943 1536.309721 1769.100332 1051.924140 24043.783263 1378.279631 539.357178 467.037394 -241.027199 59.613619 869.519257 2552.725603 4658.516993 7571.953323 1887.761454 3240.440207 868.683415 5003.608604 6154.849743 9172.797708 24885.484869 21955.615568 25315.410751 20227.556854 10314.427822 8498.706263 5052.611724 3112.313629 4434.438886 5910.472585 3890.642919 -541.351786 -541.198890 -541.074950 -540.973103 5961.941117 5941.726756 5955.345238 6141.777191 27128.638637 52.841328 2962.300905 651.805851 1212.498434 2318.830327 815.263941 791.587377 -1234.683705 1103.670994 1039.289617 154.100448 -304.350713 -319.436047 -832.297042 414.412665 508.792180 705.222215 681.056101 302.964199 1181.290909 593.673014 740.295726 1814.368562 905.850866 3757.064731 1022.439742 2315.425722 5509.596114 15567.606508 9099.557424 3901.684093 13875.168711 22743.387660 21061.536097 14284.248552 6123.515467 4353.319515 5129.638567 4845.549018 -523.175823 -523.027178 -522.906571 -522.807380 5897.809434 5839.808575 5708.079238 5630.255632 -589.752452 -825.442690 64.771682 176.789344 -863.775132 -401.213769 2557.327205 -16123.175249 -296.573125 568.941292 -469.941208 11723.321479 -17590.572714 2753.101777 -26100.761951 -1804.274634 555.287981 423.142035 969.399324 -654.862422 -174.695504 212.717811 66.441506 -75.621838 474.987273 659.610855 230.131068 457.984619 457.945812 98.341918 894.370169 3440.853837 4194.312762 6156.006652 11554.984859 18332.948293 16757.745751 7792.074962 7857.274366 5853.750774 -503.846207 -503.698678 -503.578824 -503.480134 5902.340294 5853.235162 5680.200254 5297.354354 -198.645148 2408.782880 1172.622402 -19043.005371 -5060.361736 -4904.302633 192.050274 2479.281061 345.236288 -2215.268363 -298.418613 -212.144521 1947.497057 -3733.854061 -145.180985 -15600.062951 -33270.181897 1094.896073 212.388286 3328.776540 -5474.985314 -162.526659 196.607696 -124.129807 2403.948764 906.619509 -1476.835038 309.176755 1108.165556 2666.768067 1299.261154 3459.220626 6673.391367 1417.184319 1916.585762 3765.551074 18535.982105 24304.058893 19475.065053 14391.296299 -483.357995 -483.207313 -483.084700 -482.983583 5966.637107 5995.765699 6120.811214 6196.037225 10997.455579 837.231980 -5413.140634 73.124319 -18820.131400 -12667.672271 -2916.721981 -18061.975610 12645.886809 -2144.715538 -8216.147152 -127.404641 -18658.892897 -3608.694426 -4749.926502 10017.872673 -1954.601717 -7036.484689 11835.574636 8432.356363 -5299.291636 -369.614403 -5398.774403 845.097785 -7503.939951 -566.516573 298.013899 298.387478 -400.487406 106.400357 -23.776333 -942.413170 -363.944382 1765.969055 995.796164 2036.881562 4258.277206 5020.362354 15223.827929 25492.672848 -461.668523 -461.508879 -461.378747 -461.271249 6025.506394 6073.733549 6284.401616 6681.020366 -1226.218753 -19043.005371 -18075.689824 -11689.724009 -9073.464875 -20505.103982 -28571.454658 -10022.924308 -18690.231329 -18047.304399 -15221.037530 -18047.304399 -15497.486135 -2678.715455 4147.002364 -12643.927559 -35397.783915 2962.300905 -13515.856926 1794.454353 -2892.086174 1217.024920 -4172.959913 -4181.119512 -16203.966647 -8468.599399 1713.918170 -402.073545 14.974729 1718.378166 803.771264 -42.632615 1038.857358 488.058608 1443.917247 1197.634009 5848.812479 5769.091807 4880.037177 4744.697884 -438.684321 -438.507991 -438.364038 -438.244947 6062.792438 6067.886886 6018.169819 5865.424041 -414.245482 -414.042594 -413.876817 -413.739542 6108.555621 6120.266285 6113.461907 6002.979580 -388.109138 -387.867771 -387.670582 -387.507276 6157.522217 6198.312235 6280.852980 6286.677067 -359.935260 -359.642143 -359.402996 -359.205093 6185.497216 6234.439959 6411.851560 6708.076014 -329.280186 -328.922332 -328.631161 -328.390579 6194.161657 6209.915274 6175.277208 6059.828783 -295.605818 -295.173589 -294.823512 -294.534877 6212.425157 6254.095469 6372.871225 6516.505043 -258.315507 -257.807767 -257.399777 -257.064203 6227.098679 6264.692821 6441.947209 6844.584898 -216.830567 -216.263058 -215.814099 -215.445535 6234.395902 6204.447522 6132.673330 6171.079940 -170.723792 -170.142973 -169.700559 -169.336905 6255.460143 6158.538735 5903.360957 5411.139075 -119.927118 -119.434886 -119.106105 -118.830487 6286.422376 6139.657033 5759.161847 5142.410309 -65.028754 -64.831983 -64.846999 -64.832684 6305.543327 6143.906670 5815.244103 5649.519661 -7.662870 -8.184599 -9.046605 -9.658802 6294.534472 6129.896616 5640.199986 4991.604541 49.075517 46.918989 44.057301 42.021878 6255.818136 6187.301302 6010.358126 5384.558728 100.556184 94.557563 86.895472 81.653369 6156.680519 6147.021639 6344.323000 6925.289395 142.133395 126.081995 106.489108 94.224787 6007.563179 5914.536873 5547.311149 5019.409109 176.574415 128.447196 79.577190 54.203349 5897.799253 5848.936873 5692.810643 5124.332836 231.163336 71.912053 -41.799471 -76.499274 5812.222849 5798.655584 5829.299344 5879.018332 354.528903 -299.550199 -332.151989 -327.912605 5730.388772 5710.187465 5659.574453 5667.024154 -1331.954056 -1033.105584 -755.736130 -665.485572 5653.336344 5622.653821 5496.109762 5133.271099 -3160.097873 -1483.415028 -1123.255880 -987.281655 5586.428842 5564.895312 5586.581199 5628.364799 -2040.501130 -1599.330198 -1329.556306 -1212.031827 5527.364859 5464.997664 5263.745226 4875.835302 -1676.883780 -1544.626906 -1399.527287 -1323.897160 5505.926194 5470.297293 5397.094246 5214.771185 -1516.816236 -1459.903675 -1388.928519 -1347.334160 5502.190686 5496.922256 5516.767917 5549.541295 -1394.374682 -1367.805215 -1333.221523 -1311.725471 5492.616997 5492.131468 5590.989169 5881.641249 -1279.253893 -1266.022710 -1248.917446 -1237.906646 5476.115365 5430.221708 5238.739290 5023.469960 -1160.050417 -1153.116768 -1144.448876 -1138.719771 5477.040716 5460.641001 5368.695030 4921.044766 -1033.617972 -1029.863325 -1025.376108 -1022.339866 5466.018257 5483.436619 5615.577563 5958.913251 -900.496977 -898.484592 -896.170002 -894.574681 5419.472539 5373.750564 5267.200121 5023.469812 -762.831279 -761.870025 -760.765422 -760.001672 5384.139511 5296.616974 4962.619571 4580.433845 -623.315402 -623.047160 -622.671889 -622.429520 5386.068692 5375.181983 5271.662680 4798.851565 -484.624966 -484.838901 -484.932464 -485.037545 5359.063855 5447.415218 5726.593848 5862.085982 -349.093669 -349.643403 -350.045300 -350.385213 5241.809575 5334.310643 5764.607147 6724.242628 -218.532922 -219.301514 -219.897704 -220.388211 5074.858200 5030.403664 4899.666739 4921.901795 -94.147790 -95.034971 -95.735593 -96.307694 4981.704683 4919.019929 4505.327464 3541.168031 23.473604 22.554151 21.822668 21.226813 4963.284544 5042.823884 5384.987256 5864.496976 134.311790 133.431089 132.727661 132.154952 4919.360978 4965.309473 5139.594327 5782.607135 238.821286 238.032639 237.400853 236.886184 4866.134208 4830.907564 4486.810015 3633.058838 337.802074 337.138962 336.606001 336.171136 4856.991887 4856.992061 4984.979109 5314.847585 432.249751 431.724710 431.300720 430.953664 4873.735875 4823.131527 4472.062206 3803.854827 523.196369 522.801007 522.479225 522.214268 4932.389887 4966.258468 5192.342158 5698.377953 611.552580 611.258644 611.016281 610.814690 4973.236632 4998.540272 4937.702376 4687.691855 697.959668 697.720910 697.520621 697.351823 4977.670558 5054.925963 5381.204762 6030.031169 782.657653 782.412175 782.203821 782.026863 4919.934062 4949.156979 4973.466752 4933.963516 865.373486 865.046159 864.768479 864.533468 4843.959612 4866.776586 4957.353644 5295.632143 945.231925 944.736417 944.317965 943.967054 4787.130004 4795.753721 4821.762307 4761.674078 1020.691854 1019.931394 1019.289417 1018.756448 4767.958394 4756.360157 4678.354094 4612.915868 1089.512942 1088.377752 1087.411742 1086.618375 4790.358239 4788.105552 4701.387118 4247.765855 1148.761868 1147.117771 1145.689446 1144.532235 4824.658108 4848.067545 4912.932783 4963.690333 1194.873510 1192.527634 1190.406888 1188.721772 4840.171085 4848.245726 4804.446359 4766.768797 1223.792324 1220.400836 1217.128521 1214.600982 4857.986630 4881.260645 4962.106350 4987.961795 1231.246365 1226.077239 1220.628293 1216.578575 4880.306835 4875.899834 4731.257082 4303.811584 1213.311566 1204.631570 1194.600467 1187.498643 4925.020328 4987.483815 5035.558501 4705.610838 1167.820761 1151.192288 1130.827624 1117.307085 4938.290332 5056.027964 5388.602945 5573.523998 1098.637307 1061.365747 1016.907805 990.349618 4874.472573 4971.334593 5128.819696 5206.356897 1030.359391 929.304716 829.549806 781.443228 4754.858579 4847.904924 5220.761346 6059.901615 1044.314309 714.902574 516.081758 457.769711 4609.105027 4622.085160 4500.481763 4154.720111 1043.581677 73.779437 -0.775493 12.650848 4496.701782 4505.055810 4679.421993 5242.017640 -1375.390895 -1015.792188 -609.609399 -468.758354 4453.704662 4357.666312 4103.784938 3613.991391 -3577.225951 -1607.202261 -1024.571915 -846.940761 4557.995831 4398.844380 4019.052405 3593.454114 -2142.325983 -1486.979382 -1190.070981 -1061.596489 4857.740095 4732.226023 4309.700884 3569.324184 -1377.198922 -1299.973978 -1205.590456 -1154.003793 5312.220818 5313.271477 5472.632844 5582.395776 -994.126133 -1149.469604 -1198.271290 -1211.756557 5826.001648 5824.319080 5775.431106 5512.209078 -851.858666 -1098.412921 -1273.631690 -1323.157234 6384.817482 6409.514645 6404.881184 6085.972940 -988.947163 -1381.860456 -1588.923954 -1526.914620 6967.374041 6997.481851 7128.459141 7511.330818 -3554.233004 -2513.721512 -1925.825398 -1728.112580 7569.840046 7548.560319 7284.769106 6448.048352 -4344.669377 -2771.523851 -2014.626405 -1808.309371 8225.508256 8217.493002 8424.765738 8880.222030 -2629.967572 -2244.637016 -1925.272034 -1760.432000 8957.553754 8817.612787 8337.273178 7381.958296 -2232.236792 -2098.240277 -1793.915803 -1647.480675 9858.621790 9696.014200 9474.024155 8879.775571 -2906.575530 -2039.809231 -1669.871439 -1516.686851 10943.505620 10694.161878 9995.809808 8895.081970 -2767.450949 -1855.536274 -1534.489184 -1389.602215 12236.669445 12072.229943 11706.454887 11479.158700 -1883.729181 -1678.357154 -1426.518029 -1290.944291 13679.825197 13591.993073 13516.158707 13719.852954 -1775.383981 -1678.417331 -1403.395388 -1235.047107 15231.304873 15215.018544 15053.055761 14260.552831 -2121.625862 -1956.069514 -1444.608717 -1186.688682 16827.851500 16977.900986 17663.750078 18950.934223 -2881.360024 -2302.677544 -1376.760027 -1067.849001 18385.156534 18488.566062 18949.388349 20635.310591 -2310.519562 -1978.643519 -1143.789429 -847.369627 19978.897326 20073.321835 20031.153122 19307.875619 -1770.829531 -1405.197840 -837.811938 -572.263934 21616.175396 21985.382879 23126.270855 25220.806737 -2267.056988 -1087.286935 -570.225258 -307.216757 23088.396939 23528.785827 24553.465053 26513.208916 -1647.799513 -1025.500771 -405.317826 -70.204126 24286.186867 24683.636192 25480.776010 26247.461106 -2374.211926 -1387.495543 -235.414018 225.733891 25178.442527 25472.806233 26170.173547 27577.388756 -3927.605365 -1077.811322 278.375394 723.222265 25774.686244 25884.274686 25885.501784 25971.474186 -694.278719 496.009410 1145.103565 1437.078702 26159.529068 26201.463490 26147.860434 25887.537733 27351.756566 26325.733454 23185.465832 23954.138678 17858.838588 16967.355175 13977.511612 13247.664167 12244.797466 9742.564582 11080.171635 5412.832906 5176.456580 8557.160855 4819.507356 5104.385544 7170.577433 5158.570699 2636.555310 994.451181 1968.228518 1580.791611 1085.448986 750.008196 1076.556706 250.237333 164.018344 -142.301759 -430.162202 851.190039 1178.394639 536.495427 555.907218 273.798718 -60.432697 -83.533682 755.772447 1638.373678 1959.850936 2320.873051 2641.056772 2953.812578 3153.159029 3446.352592 3884.933480 4111.678240 3979.345563 3828.429119 3503.940017 2763.514972 1991.206247 1895.882825 2097.529319 2224.730436 26387.609166 26423.449114 26500.183926 26585.167957 26730.624829 25618.197404 23923.796459 23007.294487 19508.771942 18548.832680 15668.367131 13957.131398 13134.916608 11592.363333 10344.881116 7974.306904 7308.509900 7251.062110 5898.089802 5375.242893 5448.682272 4408.515999 2984.486304 2176.038282 1737.185154 1405.112886 1103.796025 865.292791 689.719373 442.646354 296.383872 230.000949 300.649032 522.083880 613.373374 599.266043 556.524165 516.627871 537.774927 702.513823 1084.355012 1559.551614 1969.555120 2319.941097 2630.164210 2914.468717 3185.262731 3453.571039 3700.862025 3868.828051 3920.752061 3851.570787 3642.643591 3303.572821 2973.826391 2851.940765 2876.081471 2907.697362 26492.145824 26501.628254 26495.283513 26380.557450 25965.557399 25064.702201 23732.163183 22115.680760 20202.453194 18425.237558 16484.445038 14814.165734 13318.032258 11818.054757 10366.130710 9009.354896 7936.445743 7038.556110 6185.599382 5448.407550 4736.319665 3900.820009 3036.693404 2325.987177 1812.580409 1426.506114 1116.715636 866.348570 662.018886 496.097295 387.581223 352.429375 397.168843 489.197401 562.735819 596.084115 615.161201 654.019241 755.304242 958.799556 1267.135475 1631.491760 1992.668500 2324.637538 2626.839406 2907.226460 3173.634387 3426.941580 3652.147337 3819.621769 3904.131157 3894.711974 3793.738351 3631.049549 3476.256797 3392.593270 3371.952691 3365.184697 26522.759171 26511.281573 26449.165433 26237.431528 25739.330967 24852.826384 23586.004170 22018.982760 20269.892266 18470.662445 16698.610249 15030.480961 13466.103701 11967.238699 10536.136004 9225.040081 8091.889354 7107.401731 6219.586049 5408.382538 4623.477543 3821.265134 3045.521298 2378.896945 1854.512603 1449.477661 1130.167464 875.331436 673.547453 522.230677 428.373416 398.364996 427.117659 489.616380 551.871448 599.280747 644.380691 714.898676 842.757425 1050.579277 1335.361099 1666.163768 2004.350965 2325.707136 2623.902624 2902.546325 3166.313976 3413.528077 3631.453419 3798.868062 3896.148942 3914.370983 3860.643921 3762.884963 3664.918955 3600.908652 3570.615879 3550.674129
</DataArray>
<DataArray type="Float64" Name="Velocity" NumberOfComponents="3" format="ascii">