<VTKFile type="PolyData">
<PolyData>
<Piece NumberOfPoints="2064" NumberOfVerts="2064" NumberOfLines="0" NumberOfStrips="0" NumberOfPolys="0">
<PointData>
<DataArray type="Float64" Name="Pressure" format="ascii">
 21892.166712 21866.433547 21819.317143 21738.199634 21627.361702 21523.740577 21465.525083 21373.770961 21044.183098 20360.263169 19393.778186 18305.998469 17267.909778 16397.421453 15696.164101 15098.816115 14523.332423 13910.112689 13258.839419 12576.814974 11851.532181 11122.521642 10451.312557 9848.141772 9287.739574 8753.490369 8245.208661 7762.229481 7302.121081 6866.454349 6456.778960 6071.830026 5708.816631 5364.818893 5037.387610 4724.702513 4425.540058 4139.163435 3865.195320 3603.504761 3354.122142 3117.185997 2892.919868 2681.634495 2483.748707 2299.820395 2130.575948 1976.922338 1839.920440 1720.692635 1620.235389 1539.118231 1477.094714 1432.753386 1403.469754 1385.907759 1376.945008 1374.184002 21823.261676 21807.574771 21776.929380 21715.016606 21622.657200 21561.332772 21693.343746 21929.872330 21796.271573 21084.223826 19980.494463 18697.703368 17481.373397 16537.525133 15813.810495 15209.964939 14617.270758 13923.726128 13208.726793 12527.224639 11754.728644 10958.206268 10292.386334 9741.364610 9228.322727 8718.641995 8230.482305 7763.711262 7307.713101 6871.635471 6461.372775 6075.947562 5712.437493 5367.996276 5040.222014 4727.304249 4428.006367 4141.569600 3867.594562 3605.932625 3356.602612 3119.737764 2895.561947 2684.390745 2486.651003 2302.910295 2133.904994 1980.551841 1843.923192 1725.161356 1625.304536 1545.001202 1484.116626 1441.314393 1413.837176 1397.906907 1389.978518 1387.457783 21691.472972 21697.530962 21713.656106 21692.389047 21610.305252 21481.975647 22003.177597 23271.736244 23635.084679 22697.225984 21303.297379 19551.209624 17812.105473 16847.595956 16109.517360 15537.041602 15005.675993 14023.370121 13082.872892 12582.815253 11644.270872 10553.576732 9900.421655 9521.780596 9121.224052 8641.089692 8192.226220 7772.714987 7317.541931 6875.215141 6465.091867 6079.453910 5715.597429 5370.798430 5042.727585 4729.598167 4430.170155 4143.669611 3869.679535 3608.036184 3358.747927 3121.942750 2897.844132 2686.771383 2489.158260 2305.581597 2136.789110 1983.712345 1847.446935 1729.178569 1630.029357 1550.794323 1491.546210 1451.238494 1427.276861 1414.816219 1409.192270 1407.449975 21478.784313 21520.750188 21649.715215 21804.636391 21838.483555 20725.714843 21935.207317 25926.015670 26098.605374 24728.355928 23708.706378 20736.541340 18052.344457 17371.142386 16646.655980 16163.402989 15984.196888 13981.237671 12645.040431 13387.607761 11675.498279 9421.454275 9211.869339 9141.537257 9057.903701 8454.542258 8044.583661 7854.700653 7301.041566 6877.441892 6468.383442 6082.783895 5718.629230 5373.486262 5045.120376 4731.774205 4432.207462 4145.633329 3871.618639 3609.985172 3360.730806 3123.977724 2899.948087 2688.963674 2491.463547 2308.031613 2139.423540 1986.579568 1850.606555 1732.709466 1634.048164 1555.481937 1497.072559 1457.093269 1436.903792 1429.643019 1427.519908 1427.130732 21170.189486 21232.721520 21513.672792 22216.223842 20664.961382 15028.203236 18892.564697 18867.431435 18015.557240 6444.230596 12098.917168 12513.285004 24147.909676 9542.898098 16388.814726 25807.021133 17822.499192 16506.764080 15844.538014 15535.412758 19155.167277 23313.592323 11385.143282 16127.493610 16324.951448 22229.102992 12745.874054 16821.054627 15189.108858 14031.915886 15068.919101 794.140944 14772.490459 14473.606720 15746.186500 19515.603470 407.917685 19243.829459 10870.802944 13590.203186 2886.628522 14836.178808 16114.111861 13004.712092 1431.051912 1430.018604 1433.396512 1435.618263 20780.337480 20788.872803 20923.520042 21507.365492 19452.011893 798.744748 10875.252963 8360.321494 14420.034996 10955.294441 7988.893229 11920.407767 16794.709299 9182.351727 12370.197426 14594.450028 11016.200939 9611.140352 15373.336811 8297.541729 15444.726662 22523.393475 9164.659088 10034.955459 8157.350441 10821.840377 13647.598333 15423.171213 12442.242779 15309.851742 11833.107654 14816.194886 21096.193723 11068.545610 13957.753744 19762.613390 14330.944035 13392.121524 17347.634219 16631.791506 13603.474700 15302.428744 16789.126808 13212.989139 1390.194226 1397.698833 1411.950865 1420.207148 20378.273037 20312.595338 20187.556409 19928.790084 11503.526616 8041.058549 7823.351498 7298.316398 8245.080722 6145.090343 10738.735933 12052.349889 12143.094606 10985.611296 6615.739348 5407.956936 5942.916215 14931.879497 7422.850845 12196.022085 8508.891118 8525.373638 10196.218656 4810.805211 16322.019001 11600.419234 10131.758445 11644.578831 11705.512403 13280.908624 14447.765826 -1277.202279 23589.789187 13994.095591 14821.086265 21543.958753 1876.902452 16281.645527 12772.422468 21196.431184 19051.583826 14501.771229 19950.902123 25296.980969 1281.353624 1308.116822 1348.005113 1370.321278 20016.269173 19937.410365 19829.675363 19866.641718 12070.528482 8420.514825 8404.211581 11472.223315 12170.540007 9158.199724 6377.483793 6318.688742 5495.900463 12179.208315 9260.724178 10589.876769 6930.044098 10842.993432 3285.923294 9269.529774 8433.735989 7865.042688 9887.607169 11801.585760 1719.947447 7090.643705 12948.139294 8916.627431 16510.432670 9312.121169 10570.362638 10252.689911 20371.686001 14088.729234 16272.445919 13171.271726 21651.149480 6565.724400 12704.064334 6718.379870 19736.533621 -2538.089925 11772.862390 14342.123517 1048.936557 1133.513905 1233.997736 1284.959205 19673.209741 19595.203511 19459.785868 19518.124544 9630.906202 8316.742102 12510.361654 15145.493320 13753.509362 22350.314826 11076.736057 6813.338630 9832.246047 6224.931129 4069.885321 19794.320695 6556.226370 5980.308912 2977.328480 13470.520875 14491.010696 13247.526384 3433.253036 8787.673158 11591.094298 8001.877127 9278.599260 14106.566449 10429.317313 4780.932563 21961.132946 12008.534933 11093.463171 11377.627725 15445.690210 6802.833588 6746.870398 10514.341548 13741.881783 10190.750670 8015.276777 -6968.075182 8646.279891 7050.102255 592.402015 860.010023 1088.033630 1181.116138 19311.241595 19261.787185 19078.999441 18639.074171 7924.002568 12152.697997 6080.086096 3999.661982 5924.055690 6371.042608 8586.079306 9331.158125 13788.214867 4971.911384 15062.471240 3879.356782 8251.631930 6572.178751 -1416.410095 3690.116724 7366.789243 14166.219211 9712.582097 11101.567918 6742.080152 13784.857809 10601.064280 2794.953658 8673.704207 7124.021769 -607.091689 6365.518589 7511.845723 10311.092967 13509.693286 10751.917693 6777.650534 12445.219226 19263.148966 14385.999686 10076.828226 10422.956179 7705.828626 19463.721846 -269.399433 637.995870 967.477606 1091.963130 18885.878522 18928.055937 19154.068880 19791.795335 4347.672540 7067.334833 3802.852300 3754.110308 10482.458951 10681.901558 6070.753295 4066.208578 5167.568067 3669.563556 8669.320724 4002.008574 6219.423965 10803.023866 5031.713691 4151.875301 4838.387220 10700.817784 10159.883493 5982.471340 -935.700856 20952.524000 4882.556246 14714.415849 14112.248455 13113.166601 4794.401758 5697.298638 8897.344106 7007.853668 12290.348864 12774.224649 5676.859717 2468.231393 8667.339260 7935.967124 12989.533137 21934.579644 12148.084238 1809.867240 -392.768835 617.216943 927.301210 1043.017901 18342.540113 18389.134548 18510.333449 18775.963974 3676.295724 4981.582668 3542.399455 7254.531548 3667.244538 2667.904579 7823.312973 3668.369463 4861.161131 4239.608798 3870.250455 3392.159369 7135.077260 9682.564271 5132.597568 3683.952571 8158.984061 4625.770250 3461.100079 4973.444653 7769.495686 5241.157966 5116.671198 7013.866843 4052.952887 12151.305925 4846.992433 21120.028839 14369.583886 16110.274081 8192.277734 19855.942473 6420.217262 12912.047892 16485.501518 -2830.105484 7913.479492 12893.506226 13757.864786 6101.386803 518.943246 769.169010 950.097360 1027.548011 17704.277424 17743.124267 17766.499804 17524.667474 3990.323018 4727.539567 5690.521718 3861.000850 3834.988118 10760.879182 4070.854474 3494.076008 3563.149306 5501.061140 2269.556969 4248.060006 9532.361360 4234.644588 4985.501143 10178.544273 4988.510093 2840.905607 5721.913202 10189.452219 4637.090765 4109.177572 9610.616693 3752.238392 5848.749233 13991.082442 21783.951181 5901.984584 5130.019423 7215.676841 11936.875503 704.233954 -6736.413699 1378.369740 9970.209118 11337.634700 8504.123570 7597.118446 8655.029524 22213.740360 839.661782 898.325122 976.185772 1015.136533 17019.893746 17075.619079 17218.380169 17237.962455 3244.241589 3679.485912 10858.813914 6090.352692 3264.059687 9580.486321 8394.040543 3535.686052 3583.589477 3689.056335 6829.236602 4678.917916 2879.463208 2536.996228 3622.921339 3245.169889 5137.886113 6888.004132 4454.692339 3637.886195 4517.008261 3157.220809 11593.765501 7580.736135 4795.142530 10838.835406 3841.565753 9044.044514 6828.675930 11559.386843 8021.191646 7085.321677 4465.681910 7424.865010 6545.222191 11105.676436 1876.902452 19489.885171 20780.965517 3651.640145 917.723313 934.621630 962.836384 978.333354 16327.397792 16371.676299 16525.656687 16896.306639 9618.681623 3818.385273 11316.010221 11064.815340 9037.660098 10384.653119 4558.757992 9772.587291 3944.116125 11021.933587 10275.155796 8387.956787 4577.472470 3036.626269 5060.028800 5026.512335 4130.053679 9839.438516 4204.909483 3914.590133 4096.244841 3476.776443 3729.483056 11344.879740 3672.113652 11204.707409 3738.700212 6839.610130 3283.878859 4667.072372 5643.294526 8050.551835 9736.680316 7752.082563 10602.535038 9996.988813 8193.486183 14233.831190 12756.536438 4481.775125 889.865143 893.170645 902.271344 907.188621 15678.616011 15676.847985 15679.719794 15803.043488 9932.473533 3511.018321 10470.409156 2745.715452 11756.039679 12960.498336 2163.662805 7669.532450 9218.896734 10444.295543 12243.626547 3841.408715 3261.324227 9240.738346 6961.486653 10448.224330 9122.721966 7239.613655 9706.301610 3824.411482 7119.099170 3210.871743 3504.762220 3791.890705 9462.736526 3313.583059 4071.354543 8703.403693 4741.797859 4361.565668 3529.793620 4099.408156 6457.226589 5355.473642 3938.769267 9575.241648 6012.908732 5088.476801 8224.567043 7003.882494 802.640161 802.498694 804.999861 806.135455 15139.059203 15094.680691 14981.515523 14657.981925 10481.378830 9458.940202 7755.945039 18555.765513 4214.224920 10992.426707 3392.054397 10517.793362 10671.485599 7947.241413 7933.381128 4226.219669 7429.188478 9077.794799 -1003.552780 10527.237167 7125.258177 4655.927162 10911.538927 11244.574676 1756.700492 9826.007696 9564.468404 4871.966013 6791.330100 4475.655904 5063.449299 3906.919308 10967.067515 3422.558746 3935.343325 9202.851582 10474.353167 10401.724569 10691.608828 7238.696265 4392.358296 4115.733798 6235.286963 4465.776713 685.202362 684.814007 685.511790 685.727473 14763.463309 14724.276679 14632.581453 14360.315468 4242.945097 8611.695196 8786.688645 4505.694158 9831.921809 3981.745978 3094.236549 3067.895057 15891.789181 3056.030813 9735.961043 10124.058867 9598.447908 9055.587334 11993.385580 9727.580668 5393.108727 13986.831706 7374.602755 4940.413584 3328.210096 8949.702353 12004.561770 8827.971888 7389.040344 9977.864661 4538.891638 9974.101561 4398.398375 16541.078288 3720.816869 9817.485870 9915.604205 8870.993970 1174.858342 1189.802625 3693.488933 4967.043692 7604.898515 4699.232518 555.883108 556.101586 556.644680 556.937773 14551.019280 14579.084555 14640.548698 14594.789298 10978.950458 10250.854012 6923.813430 11679.217709 4906.339191 14152.984853 13446.045891 3083.379875 6301.362385 12276.741556 9289.032491 7671.386855 8910.345398 2586.978255 3367.039327 10029.273212 7217.694078 5648.750566 -730.907915 3687.038910 7766.715769 8560.911373 5530.267396 14908.053869 9487.598338 14938.277480 8374.473081 9796.936916 4811.710062 8283.018695 6163.681086 8621.276465 4313.517982 8814.019566 9981.687705 5147.046637 8846.129917 9126.056790 8956.347470 10225.169281 426.344050 427.213839 428.033745 428.633066 14420.307546 14543.495579 14897.281231 15472.391351 3920.639338 5668.235304 9122.075277 8914.771825 11072.101266 10941.838192 2986.912172 8854.124425 9020.679913 10742.869205 8304.614015 10375.734468 5060.460670 7084.404402 8230.939321 3549.530377 10511.338329 2775.067203 4890.043305 2416.718198 4981.809842 14775.736353 13408.163816 2958.769375 5428.040603 -18248.217259 4559.660614 7973.849656 9549.887140 7377.063565 8035.344399 10838.079405 12590.926219 9692.800438 10029.257965 10630.394874 10545.095553 2917.004385 4128.926877 4943.179621 303.647275 304.972138 306.068867 306.928609 14247.028969 14390.617856 14898.300777 15957.881881 4506.367484 8989.104588 6154.772258 8488.243301 7958.763901 10306.231410 4842.084061 14301.098719 11541.835146 13493.112326 15860.747970 5020.872035 3977.388495 7393.127325 4530.283009 9335.303263 14478.322268 20868.392646 7931.616463 4237.938425 4828.794269 13106.522207 9444.327063 3919.005146 4174.391254 12580.982552 27500.121881 7480.109401 17710.385144 2198.057886 18709.879112 10037.451369 6432.378363 4629.968503 14567.182170 8044.760825 12514.889357 8565.281441 4061.233140 4392.815108 191.598616 193.152824 194.405782 195.409659 13956.324070 13970.261862 14019.718566 14140.573683 10009.941332 10179.242963 10066.462928 8719.241440 11002.460550 11765.720724 8075.535643 15171.818611 10867.871781 8947.600913 14991.050568 9775.996932 10040.268755 10672.749752 13397.781854 10772.144971 10042.598123 13498.781691 16931.186360 3743.111286 2810.188330 9076.545635 12477.128234 9675.145752 9148.246183 9926.477805 11766.571673 10476.763507 8842.827726 13744.052922 15023.174403 9430.585036 3138.111073 14685.744561 13136.638272 3091.210526 5828.202927 4647.727171 10692.511021 3304.622540 91.745397 93.345076 94.628628 95.666556 13587.150275 13463.777263 13102.615191 12357.341365 4122.636588 6857.421615 8853.660969 13703.218976 2041.766239 14499.265409 4493.013282 17969.229431 7177.125853 -1831.205733 15016.909759 14692.122292 12127.434254 3839.549337 7818.527417 -8082.867460 10237.767718 6877.682105 7587.551330 3989.931518 2821.112071 9904.438121 124.098186 19213.721348 13986.964340 1180.998500 14876.373290 1356.504126 11975.966611 14597.045033 7557.597937 10959.635654 10490.919546 8582.997843 6430.251275 12712.144036 10666.136165 6505.747019 20217.453005 3741.498437 4.146340 5.665199 6.884909 7.876175 13201.865569 13035.251443 12682.670217 12099.130395 14468.223220 12022.163215 6165.307754 10588.500801 5678.587785 12792.375177 14088.015350 14604.033208 10416.642490 21259.972525 9159.077016 8137.989489 18023.634060 10893.640263 10472.946502 14831.166097 21235.491537 13870.224687 21186.180460 6515.727520 12297.008472 4334.443680 5003.625063 8910.718243 6005.450653 1651.014742 13950.456872 15676.067818 13449.131017 9491.697466 12489.198473 9991.749977 15971.763035 21616.518352 8219.375341 11808.259922 11633.674218 1317.002212 9236.462007 8914.923394 -72.043207 -70.679244 -69.581466 -68.686337 12811.023453 12629.964558 12368.187096 12256.574518 -138.143806 -136.968521 -136.020253 -135.245108 12421.818579 12182.696211 11715.649290 11282.894024 -195.656235 -194.675516 -193.882352 -193.232676 12088.966474 11824.247064 11227.769574 10292.311771 -246.070846 -245.273221 -244.626734 -244.096279 11841.471575 11643.166317 11297.346423 10820.438834 -290.756321 -290.120993 -289.605044 -289.181052 11619.570565 11486.482953 11315.175144 11037.954854 -330.905072 -330.407544 -330.002800 -329.669746 11343.649436 11233.550740 11168.031795 11216.048533 -367.516509 -367.132203 -366.819088 -366.561131 10978.365043 10801.739099 10621.888119 10648.921923 -401.403617 -401.109964 -400.870396 -400.672828 10580.213515 10266.231949 9559.873502 8597.464908 -433.212255 -432.989704 -432.807945 -432.657924 10268.024029 9921.162773 9357.153914 8932.210468 -463.445909 -463.278224 -463.141157 -463.027947 10082.818606 9666.515648 8877.963426 8287.386875 -492.491304 -492.365431 -492.262479 -492.177402 10059.312092 9598.380436 8562.093337 7031.527422 -520.642190 -520.547902 -520.470752 -520.406977 10193.705651 9804.549566 9134.608005 8396.653071 -548.120015 -548.049460 -547.991719 -547.943981 10380.063078 10011.274925 9366.460506 8708.713211 -575.091057 -575.038305 -574.995134 -574.959442 10542.254199 10137.758456 9294.421557 8053.121768 -601.680106 -601.640735 -601.608519 -601.581885 10676.782533 10263.464790 9479.518262 8492.416994 -627.981099 -627.951835 -627.927893 -627.908103 10790.470057 10350.306049 9372.671710 7837.361907 -654.065162 -654.043592 -654.025945 -654.011361 10905.889478 10511.501745 9748.742913 8685.543024 -679.986592 -679.970931 -679.958117 -679.947527 10996.775466 10631.219220 9939.914292 9073.316633 -705.787213 -705.776132 -705.767060 -705.759560 11043.865550 10663.837553 9845.790789 8648.141906 -731.499508 -731.492001 -731.485845 -731.480752 11071.021553 10701.034734 9891.927041 8727.010581 -757.148840 -757.144128 -757.140251 -757.137037 11090.959442 10774.706038 10110.683176 9010.683389 -782.755011 -782.752475 -782.750370 -782.748615 11072.062525 10813.625165 10350.821638 9771.969548 -808.333349 -808.332479 -808.331731 -808.331092 10977.453127 10720.438836 10224.583751 9774.856817 -833.895462 -833.895827 -833.896082 -833.896268 10826.435838 10544.056918 9910.760118 9078.770324 -859.449766 -859.450987 -859.451937 -859.452693 10672.011832 10403.714788 9804.446694 8799.749759 -885.001848 -885.003583 -885.004950 -885.006048 10535.720631 10306.236453 9884.357649 9403.041522 -910.554731 -910.556665 -910.558194 -910.559424 10414.084569 10188.660537 9702.142809 9110.873263 -936.109065 -936.110905 -936.112358 -936.113525 10323.969846 10120.885616 9628.414895 8725.417939 -961.663278 -961.664746 -961.665898 -961.666816 10268.470170 10135.684715 9909.415962 9579.563268 -987.213690 -987.214523 -987.215159 -987.215654 10214.991759 10115.954108 9949.625723 9798.913123 -1012.754620 -1012.754565 -1012.754482 -1012.754386 10157.820897 10070.021422 9881.215792 9608.990566 -1038.278476 -1038.277291 -1038.276295 -1038.275448 10115.180844 10053.052836 9948.210394 9907.358881 -1063.775843 -1063.773300 -1063.771205 -1063.769453 10094.678061 10057.508760 9961.969386 9755.384486 -1089.235574 -1089.231454 -1089.228082 -1089.225282 10093.765575 10110.727680 10179.356738 10290.763502 -1114.644874 -1114.638969 -1114.634153 -1114.630168 10080.169465 10141.488290 10320.406665 10580.232016 -1139.989394 -1139.981510 -1139.975092 -1139.969791 10018.358583 10082.138848 10245.062759 10470.433089 -1165.253326 -1165.243279 -1165.235111 -1165.228374 9903.775984 9938.058851 10016.067582 10284.452395 -1190.419500 -1190.407120 -1190.397064 -1190.388777 9761.525913 9751.200477 9670.628886 9624.494772 -1215.469487 -1215.454618 -1215.442548 -1215.432608 9632.974920 9618.546173 9496.224455 9350.135923 -1240.383710 -1240.366208 -1240.352009 -1240.340322 9535.800249 9574.584359 9643.064071 9680.885556 -1265.141550 -1265.121288 -1265.104856 -1265.091337 9443.114579 9530.947562 9717.744549 9899.103919 -1289.721467 -1289.698332 -1289.679577 -1289.664151 9321.131049 9432.952547 9706.625351 10193.448386 -1314.101119 -1314.075014 -1314.053855 -1314.036458 9154.815221 9254.017163 9364.169252 9244.391362 -1338.257485 -1338.228326 -1338.204696 -1338.185273 8952.191108 9080.899252 9421.023322 9847.875493 -1362.166991 -1362.134712 -1362.108553 -1362.087057 8697.832484 8782.552953 8978.248870 9313.292931 -1385.805648 -1385.770192 -1385.741453 -1385.717844 8428.829717 8443.266483 8344.454403 8166.740239 -1409.149190 -1409.110504 -1409.079127 -1409.053364 8207.670569 8243.141128 8209.557848 7814.219145 -1432.173222 -1432.131241 -1432.097137 -1432.069158 8013.179472 8123.839326 8388.748402 8513.531636 -1454.853406 -1454.808009 -1454.770991 -1454.740673 7765.825289 7896.575432 8244.740615 8796.689049 -1477.165699 -1477.116606 -1477.076237 -1477.043291 7431.225216 7502.154769 7614.651125 7639.959440 -1499.086738 -1499.033268 -1498.988494 -1498.952221 7050.324205 7066.606858 7013.643935 6708.082211 -1520.594572 -1520.535067 -1520.483337 -1520.442033 6668.488870 6676.554749 6687.532013 6797.597444 -1541.670190 -1541.600669 -1541.535847 -1541.485362 6293.092033 6273.291644 6172.785061 5832.631179 -1562.300939 -1562.212015 -1562.119376 -1562.049550 5941.650712 5899.700367 5743.135197 5263.155153 -1582.488130 -1582.358414 -1582.202660 -1582.088129 5636.495816 5612.618693 5567.641178 5490.983371 -1602.263212 -1602.047668 -1601.743872 -1601.518710 5369.698205 5340.512256 5323.748701 5353.233325 -1621.715537 -1621.341985 -1620.681225 -1620.162091 5148.613241 5081.321214 4845.330649 4506.579031 -1641.006521 -1640.500639 -1638.927152 -1637.560177 5004.482681 4970.881372 4882.707570 4642.429990 -1660.456130 -1660.803037 -1656.323340 -1652.406663 4912.636284 4924.868608 5026.570076 5261.705526 -1686.677217 -1689.142052 -1671.431269 -1661.053008 4828.625362 4821.845337 4828.438510 4916.952292 -1746.268154 -1722.537260 -1673.201246 -1656.109647 4761.479811 4726.315917 4591.280747 4393.740508 -1762.994911 -1701.584427 -1647.159646 -1631.202558 4732.116139 4721.315589 4704.499710 4711.498350 -1651.340373 -1621.059909 -1597.332252 -1586.852393 4716.451605 4731.234291 4782.897376 4836.177994 -1551.718064 -1543.902686 -1534.189143 -1528.685515 4679.043754 4707.923608 4801.702920 5016.041174 -1472.311381 -1469.240397 -1465.074071 -1462.486864 4595.119071 4613.284866 4676.589157 4842.735624 -1396.233140 -1394.939331 -1393.135288 -1391.960410 4466.246060 4447.657457 4417.893446 4400.593982 -1320.929357 -1320.332651 -1319.523535 -1318.978792 4322.841374 4259.185757 4087.783163 3832.981821 -1245.364565 -1245.050868 -1244.658635 -1244.385019 4206.819930 4129.198464 3941.404224 3617.522324 -1169.108574 -1168.911018 -1168.693081 -1168.534072 4133.741583 4077.499628 3937.625738 3642.788622 -1091.971745 -1091.822119 -1091.677321 -1091.566543 4082.056728 4063.677995 4111.699081 4257.562593 -1013.864617 -1013.735599 -1013.622899 -1013.533250 4018.642923 3979.135686 3891.557547 3814.056962 -934.740349 -934.622726 -934.528012 -934.450181 3958.858698 3909.936026 3783.240201 3616.339939 -854.569494 -854.464309 -854.388775 -854.323617 3921.350111 3896.694684 3870.275680 3917.282900 -773.325825 -773.244843 -773.205666 -773.164625 3898.766576 3887.004500 3898.315272 3892.618296 -690.971437 -690.946401 -690.990263 -691.004148 3887.728234 3874.367724 3842.859591 3777.916644 -607.428591 -607.537416 -607.777805 -607.920406 3892.298738 3893.041091 3918.901249 4026.501843 -522.513783 -522.948498 -523.656666 -524.098997 3902.231585 3913.573680 3924.798932 3938.130982 -435.771642 -437.023340 -438.843845 -439.966370 3903.693940 3941.237525 4026.655861 4084.666782 -346.023369 -349.452106 -353.890490 -356.466289 3872.362009 3927.371713 4092.233757 4341.842289 -249.968686 -259.932074 -270.252972 -275.530058 3795.256282 3827.681258 3918.153502 4006.818304 -136.711171 -171.054019 -191.406432 -200.538380 3694.256067 3690.238149 3660.738137 3568.959207 3207.201250 2735.118465 2547.392785 2660.252787 2833.342856 2992.271120 3069.715955 3114.588388 3142.309972 3156.205154 3158.117975 3149.376644 3131.104533 3104.308423 3069.897148 3028.682726 2981.381207 2928.617567 2870.934378 2808.802685 2742.633544 2672.789013 2599.591885 2523.333825 2444.281856 2362.683348 2278.769715 2192.759108 2104.858323 2015.264165 1924.164417 1831.738553 1738.158273 1643.587918 1548.184806 1452.099487 1355.475941 1258.451689 1161.157780 1063.718553 966.250888 868.862320 771.646456 674.671960 577.955977 481.399061 384.620475 286.510932 183.846575 65.907914 -36.440359 -93.068281 -123.316232 -136.047730 3604.091497 3581.205285 3517.687794 3398.051778 3268.784806 3068.076212 2873.355238 2900.419323 2966.148602 3024.581022 3076.859253 3115.790696 3141.309489 3154.419611 3156.125471 3147.418518 3129.276486 3102.640871 3068.391130 3027.326700 2980.159168 2927.513005 2869.932131 2807.889688 2741.798981 2672.024161 2598.889817 2522.689067 2443.690067 2362.141032 2278.273995 2192.307552 2104.448814 2014.894811 1923.833494 1831.444458 1737.899501 1643.363044 1547.992470 1451.938396 1355.344881 1258.349576 1161.083791 1063.672453 966.233826 868.878728 771.708611 674.810986 578.248777 482.036452 386.091659 290.171102 194.039866 100.373591 19.390076 -37.673487 -71.634668 -86.311741 3543.867522 3516.525284 3454.181603 3357.776202 3239.352918 3116.271469 3025.715291 3000.148854 3015.000265 3049.243145 3086.786739 3118.778494 3141.334443 3153.256325 3154.553038 3145.774175 3127.700768 3101.185985 3067.069613 3026.133762 2979.083189 2926.540535 2869.050228 2807.086922 2741.065744 2671.352624 2598.273721 2522.123449 2443.170984 2361.665314 2277.839047 2191.911189 2104.089147 2014.570166 1923.542346 1831.185403 1737.671220 1643.164294 1547.822073 1451.795244 1355.227965 1258.258061 1161.017227 1063.631267 966.220511 868.900690 771.784942 674.988592 578.640752 482.913162 388.094886 294.795875 204.511404 120.708862 49.231343 -4.546971 -38.648579 -53.880974 3516.635738 3489.121568 3429.856758 3342.883222 3240.042009 3140.117552 3067.079016 3034.801103 3037.736879 3061.279489 3091.780724 3119.947434 3140.714081 3151.902710 3152.966372 3144.180170 3126.195216 3099.803730 3065.817069 3025.004504 2978.065621 2925.621730 2868.217818 2806.329953 2740.374960 2670.720445 2597.694058 2521.591460 2442.682820 2361.217890 2277.429842 2191.538097 2103.750360 2014.264087 1923.267536 1830.940535 1737.455057 1642.975669 1547.659880 1451.658437 1355.115572 1258.169238 1160.951389 1063.588418 966.202032 868.911225 771.836863 675.112500 578.909779 483.497224 389.371707 297.529786 209.924428 129.898232 61.874198 9.879023 -23.783808 -39.038933
</DataArray>
<DataArray type="Float64" Name="Velocity" NumberOfComponents="3" format="ascii">