<VTKFile type="PolyData">
<PolyData>
<Piece NumberOfPoints="2064" NumberOfVerts="2064" NumberOfLines="0" NumberOfStrips="0" NumberOfPolys="0">
<PointData>
<DataArray type="Float64" Name="Pressure" format="ascii">
 7100.820016 7049.178276 6949.770009 6804.719652 6620.845861 6401.755626 6150.901014 5894.126829 5697.036770 5635.499582 5736.610659 5957.845326 6227.665953 6489.148751 6711.055716 6881.174699 6998.481694 7067.943538 7097.293204 7095.021904 7069.176157 7026.711248 6973.226814 6912.951863 6848.877497 6782.962383 6716.359268 6649.630073 6582.931925 6516.167028 6449.096173 6381.419645 6312.831126 6243.050625 6171.842056 6099.020209 6024.450909 5948.047189 5869.763453 5789.588975 5707.541549 5623.661768 5538.008179 5450.653509 5361.682201 5271.189907 5179.286537 5086.106812 4991.837601 4896.783116 4801.512128 4707.163027 4615.959570 4531.707318 4459.465808 4403.900004 4367.756512 4351.280427 7082.473777 7028.682853 6922.311901 6768.975995 6582.732065 6368.740829 6108.711017 5805.762746 5548.320413 5465.392402 5602.557557 5875.546069 6180.562613 6459.791395 6690.328757 6865.296967 6985.953258 7058.117193 7089.783049 7089.490726 7065.281899 7024.112261 6971.602038 6912.018580 6848.401482 6782.760481 6716.296351 6649.612611 6582.900098 6516.086752 6448.951883 6381.208268 6312.557351 6242.723411 6171.472191 6098.618724 6024.028128 5947.612235 5869.324055 5789.151465 5707.110946 5623.241877 5537.601612 5450.261481 5361.303789 5270.820052 5178.911122 5085.690919 4991.298215 4895.928075 4799.914945 4703.960302 4609.764922 4521.253196 4445.060014 4387.388661 4350.669693 4334.186124 7066.850589 7007.661438 6886.532338 6709.167723 6517.645895 6342.042108 6089.521419 5664.423058 5219.592498 5072.890615 5333.683588 5747.299887 6120.140643 6426.051795 6668.697296 6849.833466 6974.216753 7049.063773 7082.884599 7084.384097 7061.648055 7021.648767 6970.027768 6911.084846 6847.900087 6782.526478 6716.206165 6649.579120 6582.866201 6516.018633 6448.832782 6381.033156 6312.328690 6242.447959 6171.158738 6098.276577 6023.666187 5947.238475 5868.945307 5788.773358 5706.737945 5622.877305 5537.247569 5449.918422 5360.969311 5270.485807 5178.555288 5085.260130 4990.664470 4894.786379 4797.542619 4698.675151 4597.934406 4498.300527 4411.215319 4349.546218 4312.756459 4296.795493 7062.009403 6998.571421 6860.540995 6649.080679 6468.070943 6406.450732 6184.367892 5584.435277 4899.959395 4715.204434 5179.067346 5687.755941 6083.101371 6402.788878 6652.169032 6836.991685 6963.872568 7040.754167 7076.367919 7079.449775 7058.065338 7019.169755 6968.406086 6910.093750 6847.344560 6782.248670 6716.085501 6649.528849 6582.828057 6515.956881 6448.728492 6380.879199 6312.125665 6242.201071 6170.875537 6097.965422 6023.335272 5946.895272 5868.596297 5788.423946 5706.392475 5622.539100 5536.918901 5449.600269 5360.660585 5270.181319 5178.240706 5084.899691 4990.170780 4893.943983 4795.801263 4694.514684 4586.498155 4459.764731 4348.185164 4286.271502 4253.247080 4239.309204 7077.670076 7017.776386 6888.620589 6707.313342 13461.578209 7006.908043 17102.797179 13144.900224 12533.522539 10656.875524 8836.093904 14491.459469 12132.010698 8458.425656 13087.183322 12279.841927 10979.497121 11536.491888 12216.775399 8930.165958 11859.989348 13130.962958 17499.685168 12028.807149 12131.487985 12595.657417 11437.666373 17348.241023 11018.090018 11279.506712 10032.392872 11706.059781 11026.450990 13669.881866 12239.909318 11905.776289 10040.107171 12499.987563 11989.919188 10290.625207 7133.307581 13255.466109 11009.737022 12310.290400 4234.921708 4196.912685 4174.517590 4164.441456 7118.096906 7069.209483 6975.725814 6852.036856 13416.172711 12351.403395 8485.509014 8278.440051 9505.796080 11567.594874 8459.882887 12380.234602 6658.889680 10093.463377 13975.729387 7987.096347 12689.147627 18267.131216 9985.295556 12485.028583 13216.986541 13716.808548 8530.866276 13109.339701 10043.120488 15506.310810 13643.125924 12961.034849 10237.114755 12198.455475 8571.745913 13251.246948 11981.723682 13344.562057 15740.280041 6798.241323 13070.082561 8336.602869 13319.916924 13318.416251 12292.816669 13732.057025 12442.210853 11991.279990 4105.276986 4094.143901 4082.692276 4076.806900 7183.406676 7142.878216 7059.062468 6946.467066 15100.158126 8414.622718 4787.474309 7839.033689 7756.523471 9657.987418 10753.495111 9273.660766 11129.020039 12218.645761 8792.365146 10298.258013 9928.383652 14753.865466 9868.210199 11876.510422 8636.086780 12567.330314 12672.714615 10507.034064 13366.859189 11860.868166 12158.486403 9341.528143 9900.847781 12348.477966 10764.763815 7756.717211 11406.649537 9076.968452 13461.822613 12558.608179 7685.061315 12705.016043 10775.692658 13359.446029 10179.921481 11830.771042 13109.716232 12180.855628 3993.269948 3989.339658 3984.339917 3981.409898 7277.518985 7248.506265 7185.614144 7094.629504 14224.219691 9234.169854 8404.388228 12545.218403 13988.962170 8620.031042 12491.334681 11463.350756 11859.929909 19189.309330 7819.278496 13617.276679 8267.588672 16172.235448 7719.264986 9130.255948 16096.246036 8312.560652 8119.709434 8250.665722 12447.515685 8876.441811 13927.348821 11563.076419 6910.356124 9030.649928 8955.682668 13594.117310 14704.453565 7276.252789 12415.645250 13183.236314 7978.261083 16386.751456 6667.568088 17520.248949 13209.573415 10909.172762 8305.674678 15098.120977 3886.991148 3885.461373 3883.339129 3882.005711 7404.499249 7392.211007 7359.147615 7323.212444 7159.172953 8799.107170 14778.219635 16770.188716 12566.268814 12708.772415 13458.541267 7936.725446 7093.247152 9172.980291 8703.144507 13419.281292 9446.136749 5689.475069 10872.491374 6590.103721 12821.153996 24614.575347 8929.230984 15673.868366 13856.497645 10677.285990 8340.592236 12432.509945 17955.305475 10994.663727 11977.862129 16923.826506 14552.968151 14274.303483 12621.546941 10353.925825 12973.692567 10752.347673 13601.826615 12233.382073 9132.652639 10868.072062 9898.192995 12372.699470 3782.878940 3782.255029 3781.359828 3780.777705 7563.394634 7580.717597 7626.536070 7683.953977 7511.628194 13432.183854 8295.872914 8235.634206 8037.895717 7251.388850 10069.850900 7412.847149 20176.184979 7833.403606 22659.979996 7762.102572 8310.824624 9747.853000 15470.811645 9716.911907 7318.576029 18592.068570 8864.216946 9563.285228 8811.187825 13201.938774 14425.843715 13668.631880 9418.058980 8551.422196 17887.282147 8278.853881 8482.070477 16316.881487 9844.762353 11083.767235 8492.783571 14599.226468 12206.176003 11583.934990 8934.673376 11963.369532 8459.556150 13161.230177 3679.712055 3679.455226 3679.080539 3678.833210 7743.542239 7786.828715 7893.570188 8028.048253 8958.284871 8585.540900 8512.881256 7810.184527 8200.480568 8328.196057 7536.303527 7614.421585 7954.700550 9813.629725 7515.440112 7827.925140 8142.253249 7810.588550 7488.765334 9714.463565 8147.732835 7349.073107 7601.955305 7963.061144 11815.363566 10012.421036 7446.376870 14353.886324 15183.290079 15887.180831 8798.814866 13725.818258 8376.365031 12345.728250 10644.739642 13349.240825 7688.410173 8462.288055 8567.588107 8397.930141 11065.169506 13320.142712 13013.847167 13696.191543 3577.067546 3576.967400 3576.815924 3576.716111 7938.812013 7994.189139 8111.137759 8286.250109 8275.128224 7636.344508 8162.390187 7895.617251 8752.486676 8878.136693 7950.211464 7761.026223 8068.344356 7561.703093 8561.399155 7312.019139 7841.066211 7806.939454 8100.985699 7920.514830 7351.323130 8019.862105 8093.048413 8095.179103 8313.513528 10000.280511 9874.062227 8626.770816 7587.037187 14054.634369 8453.560482 11788.618388 14083.197247 13117.498425 12132.508200 12595.728801 9861.129529 14396.833743 12710.397465 16498.255124 8343.335835 11323.252908 18674.184706 12573.129392 3474.824253 3474.795353 3474.742403 3474.709105 8156.016326 8227.857920 8385.206700 8664.184695 8440.276560 7537.424072 7873.559836 8065.253921 8986.943001 8658.365357 8964.194549 9222.125579 8422.814943 7626.668476 7720.782191 8184.995442 7535.395026 7574.525810 7711.004591 7595.957616 7839.796976 8495.935376 9058.679400 8394.214497 7789.326002 8118.757962 8164.572659 8696.728468 7357.595430 17397.243368 13358.493736 7560.613981 8312.068893 8938.401538 8116.500622 8239.395756 9541.841400 7848.431704 6714.929417 13914.271390 7659.409638 8717.416378 8628.016992 12217.728423 3372.980455 3372.987405 3372.980662 3372.979395 8401.088039 8494.991272 8694.548988 9037.804761 10032.405339 8130.511920 7702.045394 7658.699613 8339.715554 9021.133766 8290.069023 8182.942389 8403.870103 7672.284531 7352.333361 8391.999976 8297.871384 9205.109853 8704.415606 8535.020083 7444.386192 8693.682169 7298.344152 8021.338739 7919.425747 17452.760379 7619.444725 7888.453559 7552.760080 8212.543895 8206.652783 8050.263386 8429.853098 10789.297534 7272.694642 8308.474064 7554.159453 7879.664129 11631.182761 6333.096322 7296.160539 12099.103557 13382.893328 8660.889028 3271.582035 3271.609959 3271.627402 3271.643539 8673.985829 8793.397248 9052.394536 9466.802558 8157.469390 8619.686931 7718.027936 6936.317966 7377.379903 7690.208425 7066.651338 7893.375268 8386.468513 7626.557205 7677.977425 7493.160919 7732.750239 8340.356618 8541.627105 8633.651673 9492.359289 8286.702521 8162.205882 7567.273503 8191.900695 8159.357879 9071.978881 7559.611424 9418.623976 9309.337246 8975.778515 8374.618337 9238.365730 7746.613583 8000.948822 8737.132941 7795.426645 7626.671297 8541.486929 7899.735696 8384.967920 13288.882836 10286.813996 11139.163440 3170.693215 3170.735748 3170.768033 3170.795330 8969.848606 9104.081840 9386.486490 9849.832330 7611.288990 9195.810110 7562.996968 11510.234172 6828.540556 16148.740099 10685.225779 5321.543291 7400.741786 7877.662093 7270.499786 8357.897264 10239.562461 8126.599481 7837.537410 8164.224032 8263.421840 8597.008330 8556.010614 7467.455162 8150.934249 9535.502583 8781.989732 10046.520370 13721.121152 8200.634867 8831.704522 7789.533844 7532.743982 8455.860668 8194.033557 8097.684820 7127.408352 8556.426766 8112.439443 7467.320279 8444.557467 11461.971113 6045.481911 9496.839289 3070.384464 3070.438785 3070.481874 3070.517608 9287.307127 9436.417818 9731.878179 10217.805010 6375.948556 8210.109526 9558.115987 8385.357577 9384.750734 8037.186380 9730.051910 9544.155065 8993.431179 8256.357894 7617.415330 8052.322490 7673.040486 8440.853767 12322.073442 7586.847628 8630.231339 7317.295268 8205.632187 9092.706646 8883.769509 8455.345287 7447.423788 8278.913396 8177.139756 8727.693726 7871.796696 7740.692194 7548.205929 9570.833212 9462.425687 6706.173286 7458.006038 7484.787825 8090.688091 7723.913715 7531.842200 8028.023667 8420.446574 9221.082017 2970.727460 2970.792231 2970.844304 2970.887230 9618.238452 9797.239265 10167.515040 10725.589742 9060.411136 6612.472404 7570.506746 7847.689072 7192.313601 7573.198643 7323.564045 4786.529680 13156.019827 9022.907368 7379.390307 7400.544774 8576.246210 6511.061833 11699.326348 7157.431825 8635.880414 7432.920359 8333.942102 9845.578398 8231.598363 8737.997885 12995.733232 8243.670203 8249.857538 7879.080911 7719.111127 12322.018913 8754.512013 13134.597859 8184.655804 8033.158809 7895.383434 7592.892024 12838.649022 9753.363888 8294.719748 7746.096163 8211.465476 8486.399577 2871.793003 2871.867505 2871.927673 2871.977165 9934.962802 10142.482393 10599.092580 11248.840957 7489.016417 7563.471122 9874.393688 6728.481303 8148.347549 11500.357372 13474.063737 9492.241861 7483.682029 6657.098503 8574.174248 8463.633779 7761.829367 9631.095937 8884.803397 8076.444355 9652.457446 8091.670114 15948.677604 9640.456780 8269.036431 8207.069250 8379.231903 12749.285658 14022.543150 15928.516380 8880.466524 10116.333640 7926.663512 7395.060314 8413.816847 8313.807272 8821.932377 8320.843322 6188.377938 8361.481465 7629.725556 7708.443395 7563.521849 7757.237788 2773.650161 2773.733936 2773.801700 2773.857392 10206.967627 10411.456166 10862.660346 11531.273608 9093.162129 9717.959912 10309.482887 5786.876731 7959.027046 6706.529406 8567.141496 8110.424702 15416.336993 16792.206763 8024.090455 7446.607169 15103.728469 8543.380925 8358.081905 8465.957577 7702.059534 7362.407569 8555.716761 7682.604768 8091.423875 12272.694986 9505.506163 8257.465000 10256.895141 11878.537051 7782.014407 10597.106810 7716.484141 9017.070214 9405.610479 13358.213453 10239.065143 8300.114452 7604.529150 8071.478243 7688.524960 9962.634179 7730.365484 7671.320208 2676.365930 2676.458634 2676.533660 2676.595297 10430.830916 10600.163135 10946.766491 11549.720574 10636.077496 7504.040041 7620.348598 12562.651472 7875.721508 8419.632528 7691.870475 12329.633331 12101.017985 7683.609665 12371.487283 18124.821904 9966.550267 8826.796598 8947.229687 7860.391655 11869.961012 12100.685831 8256.795632 8259.916783 7870.679876 13530.439767 9541.605050 8398.375937 19971.636449 15364.449099 9617.721367 6532.061245 13080.346168 9244.313182 9899.174209 7681.545569 9285.570710 10653.525817 13643.950559 10056.248359 8160.077112 8048.456900 9010.255150 8803.149338 2580.005133 2580.106471 2580.188499 2580.255874 10630.101229 10781.633965 11095.793638 11646.498205 7786.014105 8110.080467 8310.353586 11176.751265 13317.827409 6996.634311 25004.430640 13595.063572 12380.637140 7365.248562 10292.703283 18465.104118 9143.435070 7569.383956 13156.572847 11845.353446 8995.159279 23507.875643 11904.940248 10124.841075 7945.450902 8089.127668 12088.739382 8480.519244 9201.530951 7810.154210 17115.447854 9873.379622 6838.969688 12210.086241 13216.462954 12962.890097 8853.007011 13531.838394 13766.879737 6376.220958 9030.940129 7979.329196 7682.157457 9949.724510 2484.630412 2484.740113 2484.828915 2484.901845 10813.971035 10964.309241 11294.621716 11787.264543 13156.283210 8805.060629 13568.877676 7306.880558 18607.850533 11981.627589 7934.772727 13443.268362 7933.846370 8137.348310 12242.339644 13570.726039 13228.462301 8549.795301 15566.914436 -24709.249240 10078.899086 7826.087439 18148.085731 8331.606580 8479.801676 8004.725811 6897.993192 14316.030471 14430.982182 9168.571451 12059.266809 8604.619189 12258.283993 15499.756211 13576.753949 6835.247935 7152.265106 8403.491201 9026.244687 17506.615499 7543.307170 13209.273276 8552.704569 9098.064382 2390.302260 2390.420071 2390.515437 2390.593752 10974.791357 11092.533492 11330.239688 11688.304177 12691.836868 7685.653952 8883.583432 6954.338539 14213.155768 13759.404615 9739.854554 13480.218873 11734.168182 12055.137691 9441.742016 8339.133130 11461.859893 8521.833321 6505.005811 11216.928600 9164.388954 14282.811528 13061.651356 9426.202120 9886.376453 8787.325221 7788.846895 7390.152807 12719.272591 11455.373747 7126.867012 11426.260959 8921.445551 9799.505083 15271.255576 8239.574034 12436.220161 6774.448690 13670.266960 11503.522668 4899.593667 11202.965657 7644.650937 8285.890184 2297.079090 2297.204768 2297.306500 2297.390038 11123.930889 11210.065199 11368.541343 11624.515502 2205.017309 2205.150622 2205.258533 2205.347139 11274.103784 11346.551408 11483.562290 11704.700934 2114.171405 2114.312131 2114.426040 2114.519568 11422.456325 11490.040680 11622.868180 11818.598381 2024.594035 2024.741964 2024.861702 2024.960012 11558.514527 11619.550507 11761.131785 11966.523239 1936.336127 1936.491060 1936.616465 1936.719425 11677.410937 11718.506318 11813.815396 11989.143189 1849.446978 1849.608726 1849.739647 1849.847133 11789.593458 11808.440789 11832.794204 11924.525223 1763.974357 1764.142745 1764.279039 1764.390934 11910.666251 11922.536838 11956.385186 12037.515016 1679.964612 1680.139476 1680.281012 1680.397207 12047.308335 12041.311664 12023.284725 12013.059869 1597.462775 1597.643965 1597.790620 1597.911015 12211.048298 12191.758177 12119.995441 12052.012745 1516.512675 1516.700051 1516.851712 1516.976217 12405.850099 12411.642564 12418.527662 12460.365430 1437.157038 1437.350475 1437.507041 1437.635570 12603.605599 12636.171274 12683.964738 12772.831363 1359.437604 1359.636987 1359.798366 1359.930845 12769.245755 12847.489570 13049.743786 13273.720441 1283.395227 1283.600456 1283.766566 1283.902928 12864.329088 12931.292425 13080.010529 13258.347980 1209.069986 1209.280972 1209.451741 1209.591926 12900.006033 12944.244876 13004.205558 13115.356035 1136.501289 1136.717954 1136.893320 1137.037278 12907.040728 12963.950447 13089.146918 13260.587188 1065.727972 1065.950252 1066.130162 1066.277850 12891.262571 12940.801302 13036.140915 13178.093116 996.788406 997.016247 997.200659 997.352040 12867.553962 12904.302267 12921.263913 12998.899577 929.720592 929.953952 930.142831 930.297879 12848.931179 12945.293252 13125.854153 13293.779825 864.562257 864.801104 864.994425 865.153118 12788.084112 12937.826770 13274.681084 13591.698510 801.350946 801.595260 801.793006 801.955331 12638.079419 12782.209045 13098.091770 13413.630006 740.124115 740.373885 740.576046 740.741996 12409.895611 12510.822611 12687.632728 12886.063462 680.919212 681.174437 681.381014 681.550587 12156.443476 12238.159378 12379.017534 12537.322367 623.773764 624.034452 624.245451 624.418654 11915.354135 11995.095440 12156.434925 12335.402376 568.725454 568.991622 569.207056 569.383899 11700.043603 11770.283291 11889.780935 12051.513483 515.812195 516.083867 516.303756 516.484257 11517.303464 11600.329650 11761.483748 11958.348636 465.072199 465.349408 465.573778 465.757957 11352.385600 11447.215136 11649.248285 11879.552953 416.544048 416.826832 417.055716 417.243599 11187.357360 11269.669028 11424.553633 11633.405536 370.266748 370.555153 370.788586 370.980203 11024.471160 11097.888348 11220.903920 11405.859655 326.279790 326.573866 326.811890 327.007275 10863.026081 10952.325797 11147.959547 11370.725512 284.623200 284.923004 285.165663 285.364853 10680.271273 10763.577118 10952.724688 11145.848730 245.337585 245.643176 245.890520 246.093554 10469.873720 10512.527773 10557.755398 10589.189019 208.464173 208.775614 209.027692 209.234612 10257.242267 10285.433143 10314.364111 10306.510189 174.044846 174.362203 174.619069 174.829918 10050.964571 10084.051536 10151.324736 10185.151025 142.122173 142.445513 142.707220 142.922043 9837.559392 9871.016780 9957.732837 10023.257180 112.739427 113.068817 113.335421 113.554263 9607.796290 9613.379252 9610.496989 9612.582722 85.940604 86.276113 86.547668 86.770574 9379.410429 9365.962585 9330.837418 9297.745412 61.770433 62.112127 62.388688 62.615701 9171.715476 9140.375107 9065.690330 8992.378086 40.274377 40.622320 40.903938 41.135101 9000.896872 8960.822348 8859.851105 8759.553451 21.498624 21.852879 22.139603 22.374957 8871.959159 8842.335275 8771.305311 8685.277241 5.490083 5.850705 6.142582 6.382165 8772.325343 8753.637019 8712.456870 8656.779825 -7.703647 -7.336605 -7.039534 -6.795689 8688.527572 8670.776578 8616.468677 8544.668851 -18.034299 -17.660792 -17.358489 -17.110353 8616.755468 8611.083718 8610.517877 8574.765917 -25.452978 -25.072968 -24.765405 -24.512952 8553.389101 8533.309218 8474.871496 8406.648310 -29.910210 -29.523669 -29.210823 -28.954035 8517.231190 8490.459167 8400.224660 8300.617153 -31.355995 -30.962906 -30.644762 -30.383627 8524.047508 8517.817870 8470.683820 8367.608961 -29.739878 -29.340233 -29.016786 -28.751301 8559.412247 8606.269598 8708.869133 8662.354446 -25.011018 -24.604825 -24.276081 -24.006251 8575.864293 8649.277449 8814.273057 8794.384489 -17.118285 -16.705565 -16.371541 -16.097381 8540.817539 8585.238215 8653.622338 8604.019475 -6.010350 -5.591140 -5.251868 -4.973402 8467.704589 8493.796400 8524.446896 8461.601506 8.364202 8.789845 9.134321 9.417055 8371.266988 8391.152540 8428.033129 8399.127222 26.056747 26.488751 26.838370 27.125321 8257.486053 8273.590603 8316.744686 8301.188942 47.118495 47.556764 47.911449 48.202555 8133.772512 8131.466697 8110.196978 8049.115423 71.600339 72.044754 72.404410 72.699591 8020.274471 8020.203961 8009.682319 7954.953105 99.552693 100.003114 100.367625 100.666786 7924.223703 7937.337830 7963.332823 7934.547636 131.025324 131.481584 131.850813 132.153843 7840.846358 7858.632258 7903.763089 7882.597830 166.067165 166.529067 166.902857 167.209625 7769.045468 7761.608676 7737.162013 7669.881533 204.726109 205.193429 205.571598 205.881953 7724.081644 7689.028660 7595.967448 7483.170301 247.048800 247.521283 247.903623 248.217396 7720.776037 7678.399953 7588.381682 7495.820932 293.080403 293.557760 293.944038 294.261036 7759.711251 7715.280638 7625.150521 7542.412867 342.864359 343.346267 343.736221 344.056230 7837.582874 7792.732087 7687.925087 7578.885201 396.442128 396.928229 397.321568 397.644348 7948.558246 7917.677268 7855.442815 7778.791896 453.852923 454.342820 454.739222 455.064509 8076.014861 8059.493151 8043.473162 8017.441281 515.133418 515.626675 516.025786 516.353288 8205.288628 8184.737515 8143.708897 8100.901341 580.317457 580.813594 581.215024 581.544422 8337.800107 8312.174784 8246.682103 8178.150166 649.435741 649.934234 650.337551 650.668493 8477.078278 8461.300957 8426.699443 8374.476881 722.515516 723.015785 723.420506 723.752599 8613.617982 8609.755162 8606.272400 8557.960079 799.580250 800.081645 800.487212 800.820008 8735.172099 8733.172241 8732.337327 8682.992383 880.649331 881.151092 881.556810 881.889766 8839.390397 8830.872980 8814.178598 8761.092499 965.737802 966.238967 966.643873 966.976259 8934.885507 8914.022297 8861.953659 8784.602697 1054.856221 1055.355411 1055.757945 1056.088629 9037.451428 9009.722388 8943.203272 8862.655254 1148.010822 1148.505719 1148.902947 1149.229878 9157.794728 9133.803287 9083.419370 9016.762166 1245.204400 1245.690511 1246.076267 1246.395237 9294.612713 9272.203743 9212.420426 9124.389985 1346.438954 1346.906637 1347.267089 1347.568792 9443.368579 9432.589807 9409.922683 9361.128341 1451.722539 1452.149865 1452.452905 1452.715946 9591.782203 9591.099905 9596.198818 9578.551473 1561.086249 1561.421734 1561.591643 1561.766023 9728.774983 9732.236896 9744.443854 9721.127903 1674.625873 1674.746052 1674.602980 1674.571715 9849.298902 9849.744206 9843.319384 9796.804035 1792.604722 1792.206569 1791.322284 1790.815240 9953.400638 9956.699442 9961.334443 9926.021309 1915.715152 1914.024479 1911.381687 1909.797711 10037.574037 10044.438921 10063.793297 10051.916828 2045.790511 2040.665003 2033.886069 2030.001229 10098.958005 10102.804275 10108.138159 10085.238099 2188.004578 2172.593533 2156.512142 2148.340193 10141.499517 10142.786916 10142.991659 10134.368753 2359.530231 2305.771376 2273.740189 2259.412885 10170.440244 10173.269468 10186.123702 10215.176151 10218.512893 10078.612162 9910.901960 9925.549867 9879.987141 9715.250970 9603.021809 9596.366486 9471.206752 9304.165412 9164.646147 9029.028003 8889.977178 8749.819981 8608.626447 8466.109724 8321.843242 8175.382058 8026.329829 7874.375216 7719.307982 7561.021493 7399.506565 7234.840333 7067.172786 6896.712753 6723.714529 6548.465775 6371.277050 6192.473031 6012.385372 5831.347055 5649.688025 5467.731921 5285.793685 5104.177873 4923.177497 4743.073225 4564.132764 4386.610155 4210.744492 4036.757000 3864.844022 3695.160070 3527.776787 3362.582263 3199.026025 3035.426264 2866.817573 2676.646134 2513.852285 2424.065026 2376.051292 2355.898260 10187.631239 10188.686170 10192.985540 10199.772741 10189.623150 10116.098896 9999.803126 9923.056811 9848.809324 9744.859396 9643.809096 9552.267220 9439.186774 9305.399147 9166.962385 9028.647644 8889.554107 8749.427312 8608.211933 8465.628600 8321.277251 8174.732779 8025.610748 7873.605767 7718.509554 7560.214942 7398.710784 7234.071545 7066.444309 6896.035072 6723.095528 6547.911070 6370.790338 6192.056439 6012.039774 5831.072351 5649.483379 5467.595954 5285.724638 5104.173745 4923.236172 4743.192635 4564.311156 4386.846652 4211.040363 4037.118648 3865.290104 3695.738626 3528.607102 3363.960702 3201.712507 3041.526233 2883.089060 2730.655505 2600.144463 2508.617522 2454.272899 2430.872919 10195.903632 10194.537504 10191.363930 10181.272133 10152.957683 10095.951322 10019.298218 9938.053837 9850.703278 9753.225078 9650.787058 9544.476507 9427.761369 9299.768044 9165.276448 9027.930258 8889.065027 8749.037581 8607.833824 8465.209656 8320.793638 8174.180726 8024.998768 7872.948878 7717.825369 7559.521182 7398.023819 7233.405631 7065.811290 6895.444369 6722.554312 6547.424519 6370.361930 6191.688250 6011.732755 5830.826570 5649.298233 5467.470348 5285.657130 5104.162681 4923.279829 4743.289420 4564.459984 4387.047763 4211.297209 4037.442354 3865.710029 3696.327460 3529.540474 3365.658457 3205.170359 3049.060432 2899.682289 2762.428816 2646.294539 2559.388613 2504.485726 2480.073782 10198.493441 10195.668597 10188.955821 10173.401337 10141.984980 10090.141613 10020.905842 9940.678655 9851.788215 9754.693808 9651.131536 9541.306061 9423.246250 9296.625467 9163.725828 9027.190942 8888.630883 8748.702394 8607.505310 8464.840420 8320.362789 8173.684775 8024.445109 7872.350941 7717.199197 7558.883161 7397.389275 7232.788062 7065.222024 6894.892516 6722.046884 6546.966647 6369.957134 6191.338704 6011.439543 5830.589921 5649.117716 5467.345043 5285.585766 5104.143761 4923.311749 4743.370621 4564.589222 4387.224657 4211.523513 4037.724908 3866.067734 3696.807610 3530.256484 3366.873897 3207.470397 3053.625894 2908.389324 2776.927559 2666.008122 2581.693059 2527.336066 2502.833539
</DataArray>
<DataArray type="Float64" Name="Velocity" NumberOfComponents="3" format="ascii">