<VTKFile type="PolyData">
<PolyData>
<Piece NumberOfPoints="2064" NumberOfVerts="2064" NumberOfLines="0" NumberOfStrips="0" NumberOfPolys="0">
<PointData>
<DataArray type="Float64" Name="Pressure" format="ascii">
 11348.892611 11298.301489 11167.561898 10928.856502 10564.940025 10088.011777 9533.611969 8924.093203 8266.202709 7579.101249 6878.151794 6169.898911 5483.286644 4857.633199 4311.205140 3841.061043 3436.696179 3086.937118 2781.497203 2511.251881 2268.375517 2046.406496 1840.227517 1645.973099 1460.885848 1283.143739 1111.677668 945.994181 786.013783 631.931077 484.099566 342.941324 208.879919 82.293836 -36.512913 -147.326442 -250.028185 -344.592588 -431.079788 -509.625310 -580.428357 -643.739852 -699.851031 -749.083112 -791.778337 -828.292582 -858.989672 -884.237761 -904.408590 -919.881699 -931.058060 -938.391218 -942.443519 -943.950332 -943.812799 -942.935733 -942.004705 -941.393948 11410.348588 11367.693024 11253.134224 11026.359814 10647.294463 10129.035518 9550.718322 8940.815254 8275.981643 7599.978642 6928.931913 6216.600347 5503.546344 4866.450240 4320.272398 3851.401470 3446.713562 3095.717472 2788.755092 2517.016663 2272.823244 2049.771962 1842.756337 1647.895226 1462.401647 1284.417929 1112.838309 947.134865 787.197687 633.195938 485.462882 344.405331 210.436052 83.926525 -34.823171 -145.600700 -248.287311 -342.856074 -429.365014 -507.947160 -578.799106 -642.169234 -698.346418 -747.649738 -790.419497 -827.009684 -857.781954 -883.101217 -903.333161 -918.844728 -930.010517 -937.233890 -941.007901 -942.044172 -941.373872 -940.104841 -938.975530 -938.310004 11526.028560 11504.865883 11438.092957 11258.742287 10845.001391 10184.582482 9543.505641 8974.481193 8243.220968 7585.674063 7059.398033 6315.921684 5506.199749 4853.811610 4322.576852 3858.933949 3454.929306 3103.252267 2795.140105 2522.171740 2276.848608 2052.845736 1845.080214 1649.665005 1463.791697 1285.573962 1113.875323 948.138293 788.226455 634.286497 486.633578 345.660670 211.770580 85.328167 -33.370366 -144.114418 -246.785380 -341.355356 -427.880696 -506.492370 -577.384762 -640.804063 -697.037077 -746.400966 -789.234206 -825.888854 -856.724024 -882.100306 -902.374582 -917.894209 -928.988960 -935.960609 -939.089881 -938.897984 -936.727679 -934.518235 -932.995266 -932.216503 11665.829403 11673.273453 11683.446292 11617.197384 11191.557415 10152.650014 9529.471739 9164.063075 8102.148698 7328.554975 7340.788628 6495.978352 5373.451328 4845.931242 4331.845187 3867.652257 3463.317007 3110.708571 2801.405602 2527.228420 2280.808775 2055.881520 1847.382138 1651.417880 1465.161113 1286.699572 1114.868621 949.083327 789.182369 635.291071 487.707176 346.810159 212.992954 86.613705 -32.035476 -142.746002 -245.399715 -339.968058 -426.505994 -505.142688 -576.070536 -639.533724 -695.817147 -745.236194 -788.127689 -824.842029 -855.736324 -881.168024 -901.487825 -917.029100 -928.086972 -934.867409 -937.344820 -934.650154 -929.102678 -925.612870 -923.793549 -922.954980 11790.289139 11808.344324 11860.602514 11961.359118 11639.311736 11537.944125 10042.931378 11745.639875 11054.210347 8912.388199 9923.723236 9791.358188 9803.864493 9194.045450 11341.116890 10692.375271 10340.603413 11396.514904 9612.145614 10996.382151 11509.862693 9822.228081 10055.946531 9852.248884 9950.571135 9346.951079 9857.019600 8936.086600 9319.528539 10401.074666 8856.258051 8920.540284 7961.980527 9674.582177 8114.137053 7345.619404 7631.322986 8557.126198 7136.989807 6074.252627 5874.159168 6778.312729 6463.445598 6883.237087 -915.853880 -912.895907 -911.356782 -910.619365 11883.023196 11880.224846 11840.665511 11756.157012 11594.757491 11910.339453 9733.625219 10236.536294 11036.957110 9626.274015 9204.614383 8118.831249 9165.720304 6555.766061 8617.355305 11327.756226 9203.717169 9911.379360 10953.980876 8118.071951 10550.390457 11306.633246 7713.792658 8550.918796 7634.663571 9637.710835 10338.512412 10245.958374 10201.472207 9957.526843 8648.802174 8188.078028 11308.869728 7746.569545 10441.012918 8759.051985 8887.464251 8121.942836 7051.568887 7495.246865 5460.049393 5810.305381 5598.257299 4578.893608 -897.999795 -896.963997 -896.022705 -895.496196 11962.403202 11951.299714 11865.070332 11589.851217 9760.874256 8546.485677 9353.535321 9201.566878 9725.129279 9825.240891 8537.942833 9574.052448 8318.068603 9214.012270 9608.507910 7792.443906 7717.351801 7758.500194 8425.017967 7244.344495 8051.927330 8090.032252 9919.372489 9022.548855 6840.868380 5496.693817 9190.957917 7963.611965 9702.692163 7584.146088 7991.409802 6482.978760 5685.415667 8811.630500 6886.764085 7810.920615 6280.837525 5617.862697 5915.169237 6637.110541 5246.241814 5860.107093 8235.960658 7069.786656 -879.362006 -878.863523 -878.347934 -878.008636 12037.293280 12050.696769 12050.569817 11901.765402 9121.427904 8921.759974 7604.881583 9789.832975 9052.011263 8416.321993 7540.885785 7906.975196 8503.514179 10223.818944 9036.014128 8860.674293 7080.175260 7998.434196 9136.892071 8185.209189 9041.608751 8163.866479 7213.153492 5686.597370 6601.747205 8963.313118 7073.024538 7571.372950 6659.175446 8926.034316 6282.236309 5909.552059 7179.074769 7156.025297 5355.478414 7862.911461 5030.952126 5007.407316 7044.950259 4558.423812 5316.200633 4289.944457 6702.031331 6571.480073 -859.406061 -859.100551 -858.795327 -858.574180 12080.990845 12126.961010 12229.000149 12280.778672 8607.465103 9716.445143 8843.847251 7603.898779 6530.684574 7313.178923 8486.186789 7156.982607 7352.033691 6030.832146 9458.618053 8371.275762 7962.876116 8237.522106 8924.827185 6353.225449 7787.199785 6691.145201 9083.391292 8085.391944 9068.241623 8318.832806 6258.984455 7546.779355 6639.060961 5774.860085 6028.750710 5991.875493 7519.104903 5127.256434 7025.241447 6568.905578 5845.283004 4953.994436 5551.448976 5451.493751 5246.273402 4630.451061 4856.749618 5393.074851 -838.106916 -837.890583 -837.689093 -837.534843 12052.299201 12098.260568 12280.011687 12377.073075 7099.968079 8641.055568 6040.067038 7103.576853 7902.017961 6813.022332 8326.703568 6805.342053 7697.022426 5767.639395 9009.986714 7205.339705 7033.528477 3721.337834 7141.499966 6242.273103 8353.128925 7996.146746 7672.815636 5458.004706 8156.003028 7017.217690 8323.935187 5656.260546 6268.166044 6973.385150 6285.178948 6240.201485 9846.211788 5823.649039 6222.754625 5941.898669 6299.981974 5500.740119 5830.279553 6327.255378 5241.732490 6230.586557 5629.722080 4444.153721 -815.588894 -815.423614 -815.278295 -815.163525 11927.611725 11892.683328 11829.081430 11280.934992 5554.726518 7837.530683 5434.869744 5416.661476 5373.014930 4974.972473 5203.718387 7107.634727 6266.820041 5661.836507 6685.732369 6073.423545 5863.593844 6043.731918 6713.307020 5155.744395 6312.486251 5706.175133 5275.648358 7392.160043 8694.066452 4431.637576 6868.908158 6864.497557 4991.156284 6686.887079 7348.352461 5757.811367 8219.556334 6423.509356 6624.785195 5390.544789 7185.258455 5158.565231 5848.957785 4377.123503 5126.763093 5622.698345 5391.352676 7115.402276 -792.017411 -791.887321 -791.777052 -791.688459 11731.149948 11616.071882 11367.932984 10930.796250 5209.711259 5961.585483 5858.086516 5831.370214 5625.129307 5662.095203 5169.285447 6005.006367 5137.099261 5488.133191 6678.454897 5844.989120 5027.756205 3788.856959 5685.297820 5648.229902 5943.436120 5012.165692 5364.835053 6040.176439 7758.479376 6051.051162 5758.912574 6409.051138 4408.522032 6763.877611 6809.204768 6489.182629 7441.130445 5285.437946 6222.367966 5637.396474 6637.705538 4826.758385 4429.279153 6068.980263 5879.641367 5090.121142 5896.581946 5478.115062 -767.566498 -767.464210 -767.379279 -767.310419 11498.359324 11330.833669 11023.666287 10677.720087 6061.948299 5302.007190 5504.643594 5528.260750 5957.375952 4935.655772 5198.540787 5651.220231 5124.134833 5801.302252 5633.852804 5569.435536 4806.109393 4950.344317 6001.392490 5743.676786 5548.424540 5271.977253 4619.867938 4311.579401 5148.580170 5853.811554 5761.457704 4323.313553 4317.090777 7893.342194 5527.872994 6357.881639 7975.571218 4988.159268 5945.236404 5437.225838 5344.819348 4809.319995 5263.790817 5783.426691 5687.005562 5979.798030 5693.257906 5910.108779 -742.406947 -742.328508 -742.264092 -742.211616 11260.688341 11049.156999 10582.600824 10001.131452 5417.050904 5071.824673 7375.714443 5358.567790 5259.918311 4154.625669 4643.149326 4909.424936 4905.217858 4772.905791 5534.725896 5211.676073 5280.257137 5272.913375 4753.886099 5558.890830 5331.589167 4152.680758 5014.749851 5411.673608 4666.852571 5436.803868 4730.307355 5739.796646 5967.890291 4343.307211 5087.592611 3314.043418 7531.131557 7771.024385 4277.962937 5042.163729 6176.919003 5062.344172 6293.452549 4300.143281 4488.941876 4649.995998 4342.072354 4160.417142 -716.701679 -716.644577 -716.597940 -716.559860 11046.890928 10846.834465 10391.404259 9705.016753 5687.240194 5125.488586 14143.350712 14774.288073 6667.173185 21795.058348 11374.637427 5743.235861 5855.260137 20552.920481 9024.139707 4180.185164 6208.404026 4652.924917 5282.700661 5254.071183 5030.928387 5661.089319 5190.641806 4845.729670 4996.826277 5567.721711 5651.640966 6786.275126 4258.730467 3944.835027 4998.113068 4261.234964 4848.730345 4953.130472 5510.891326 3638.202672 4520.970652 4445.992091 3749.858985 4260.487638 4554.680183 4607.264883 4306.984253 3667.522368 -690.603897 -690.566237 -690.535550 -690.510467 10844.327132 10704.141712 10408.288077 9806.517648 33893.344444 10313.270008 32843.210747 41222.088372 13284.415114 37303.027781 38024.807001 25048.175204 18403.759572 31706.350331 30587.727521 7519.386633 11582.232986 6171.112234 7421.707340 4336.604807 3888.113290 3965.597454 5149.959643 4854.158692 5378.374000 4588.584529 5936.268560 6282.717781 4754.128222 5634.387136 5139.961521 4901.721890 4977.249743 5869.073861 5551.759911 4763.566587 3963.140455 4827.421130 4070.532274 4279.178752 3498.500931 2822.251227 4265.868233 4252.765329 -664.256408 -664.236574 -664.220399 -664.207183 10611.437449 10510.163662 10457.456312 10619.990799 41419.000934 41621.748146 24617.155268 29786.539264 42726.478556 12543.044609 30508.895222 43543.857412 34628.180528 34088.292260 36147.708725 35733.197557 31039.901045 17079.699797 14821.051838 6768.709687 6303.024224 8849.387326 5242.897123 4147.161876 4011.947407 4991.807994 4120.359886 5117.856248 4648.076956 5670.412837 5936.642417 6198.405738 4226.578595 4625.351821 5503.478594 3982.331101 4855.195801 3340.947372 4118.874025 3785.397395 3796.186113 3732.252476 3697.687038 4772.493705 -637.791452 -637.787962 -637.785047 -637.782689 10344.637929 10183.956682 9771.681857 9163.772080 39453.723308 46576.185875 14376.582502 44868.213364 26387.022786 46774.521631 46746.025240 39697.278869 5693.237458 44515.296226 45062.315254 34643.002816 25104.812460 40617.966252 38172.238275 34589.692948 34878.212150 22683.848983 9491.833272 11354.602114 8513.498805 6911.937564 6270.776296 5393.700013 5811.469050 5984.225245 5148.536540 4779.933734 5530.795602 5106.543679 5894.116118 4097.857249 4474.568870 3510.540310 4783.226119 4039.072881 4194.142975 4129.462680 2503.700868 3878.260951 -611.330766 -611.342215 -611.351403 -611.358959 10112.102500 9947.011914 9622.446988 9154.377356 34279.103209 41483.878378 2944.970744 18212.613308 33058.604794 1018.161876 33010.680670 2884.279915 32398.814569 65.437670 30609.304725 42186.403366 27958.625268 47243.662391 26170.229349 26737.987174 37849.320020 33810.758057 33257.248806 33868.095612 31515.194691 27369.068557 26956.511849 24967.772046 10495.274299 6665.784023 4375.991700 6051.299335 5720.293574 5060.388317 4576.980139 4748.146417 4469.877013 4966.411897 4468.285043 4680.227530 4072.884241 3941.477268 3661.448182 4183.517696 -584.985769 -585.010810 -585.030999 -585.047574 9940.084468 9770.001592 9348.174309 8721.761802 46070.295753 -5566.230513 21649.729325 2280.698830 31934.967294 9033.222677 18815.711947 5790.064070 2789.981294 -166.715517 24326.427481 11395.881267 4667.292734 -1770.377071 -839.275732 17811.964255 23950.669556 7405.436497 36093.145906 15591.385796 34209.530036 26356.022718 35813.900133 33764.045785 33807.726557 32010.027754 32342.403438 16753.317898 8926.846688 6357.831793 4680.681300 4728.359159 4672.491108 4429.312169 4859.224358 5392.252873 3847.426860 5249.917202 3371.523461 4554.464543 -558.857821 -558.895155 -558.925292 -558.950021 9840.819889 9716.416755 9552.276430 9440.498174 -5353.005355 9845.305498 -4010.074672 -2143.803997 -257.253735 -8641.938861 -4059.465128 -1531.373630 -3747.874165 2741.063056 2639.703452 -893.889607 -17590.572714 -1938.432929 31850.190126 2380.327057 2509.869781 -8125.449196 -1344.959867 2423.447099 19001.191452 -2075.826297 3116.127020 13913.776142 17251.846965 16054.069571 28248.383393 32626.194720 34457.096331 20924.218139 14016.098295 5795.719187 5202.579759 4840.610984 4441.790083 3583.068738 5056.586032 4927.495921 4478.402172 4300.105469 -533.038525 -533.086902 -533.125973 -533.158027 9797.518032 9672.149253 9376.310267 8992.392954 -2432.191014 28815.189109 -948.092201 -12765.995086 21649.729311 3484.272886 -6517.136685 -5522.218366 8903.135070 -1629.559801 160.177562 4168.882296 -8134.558027 1990.665818 3099.044920 -284.744502 31850.190114 394.405325 -293.981179 -7461.702604 -1817.850308 5551.287885 -7402.352966 -3267.809705 -3505.247162 4270.494328 -3834.113880 11322.840968 20792.077823 26692.745442 35077.486519 22607.883322 18976.429643 8204.484632 5279.150413 4038.392266 4195.911722 5268.143702 5556.056981 3795.624556 -507.610064 -507.668284 -507.715319 -507.753900 9818.941857 9730.674505 9608.803352 9525.253685 16249.352660 29304.853541 -20160.784115 3822.001763 -2027.025472 5068.527016 -5035.501007 -1951.573291 -1952.835616 4589.085379 5867.785900 -3852.469498 2691.632882 -624.736855 -4120.231352 4589.085379 -2958.340498 -3592.892346 -1411.872222 -3180.594934 1738.070998 -367.617245 536.917383 3225.682857 -3249.168040 -3958.880212 -4166.607004 -4942.605104 -809.290235 1749.508438 7170.549262 32594.850317 28711.227179 26415.754281 17638.761210 6668.222423 5539.123458 4355.326832 4703.562989 3758.285469 -482.645573 -482.712486 -482.766554 -482.810902 9883.515888 9815.948591 9641.737866 9494.158538 4191.950002 -17950.431378 -15667.817010 -16736.418777 11812.382410 -22046.425859 -28571.454658 -14000.802142 35776.974283 44925.963582 -15193.180775 -15628.676515 58927.336690 4859.129127 13749.984770 4231.252033 29224.262889 79366.878933 25401.730786 -4120.231352 4866.288241 -10631.679011 -5180.870718 -2080.657763 -793.008300 -1964.281468 2705.031081 61.023325 286.112655 -8566.280908 94.264230 4207.081604 9452.183112 18662.659756 34786.714834 31861.281058 10567.557086 4513.739506 4881.292643 3507.296129 -458.209517 -458.284028 -458.344243 -458.393631 9959.801433 9955.709273 9924.929422 9658.112061 -434.358104 -434.439172 -434.504694 -434.558433 9988.397842 10041.129694 10336.602471 10931.541876 -411.139701 -411.226343 -411.296376 -411.353813 9930.122107 9923.347671 9880.533173 9876.469936 -388.595262 -388.686552 -388.760346 -388.820867 9830.777462 9811.088946 9766.278229 9709.982410 -366.758763 -366.853832 -366.930686 -366.993714 9705.234011 9682.105812 9621.875242 9523.500222 -345.657641 -345.755678 -345.834935 -345.899934 9557.055677 9526.434931 9522.737839 9479.100265 -325.313231 -325.413482 -325.494534 -325.561003 9397.785964 9326.256708 9130.248754 9036.382553 -305.741199 -305.842969 -305.925251 -305.992729 9262.706565 9183.780864 9041.749002 8761.166796 -286.951977 -287.054624 -287.137618 -287.205680 9156.744099 9049.173519 8746.870115 8379.612201 -268.951181 -269.054119 -269.137351 -269.205607 9091.173477 8997.687283 8815.348757 8723.337162 -251.740026 -251.842721 -251.925759 -251.993856 9045.163247 8962.579593 8645.534643 8072.406217 -235.315727 -235.417697 -235.500151 -235.567769 8993.405255 8996.098284 9042.742851 9094.437084 -219.671890 -219.772702 -219.854223 -219.921075 8879.347007 8926.146056 9046.093975 8865.946080 -204.798886 -204.898156 -204.978431 -205.044262 8679.366854 8714.472332 8959.615929 9544.612410 -190.684212 -190.781599 -190.860354 -190.924939 8441.976454 8373.671713 8131.690498 7787.792988 -177.312834 -177.408042 -177.485037 -177.548178 8265.672738 8200.454061 8079.581136 7759.635161 -164.667516 -164.760289 -164.835317 -164.896845 8145.288943 8063.506726 7939.068948 8147.620908 -152.729127 -152.819249 -152.892134 -152.951905 8063.106971 7965.252367 7634.318777 6926.220481 -141.476937 -141.564226 -141.634823 -141.692716 7986.930006 7925.052489 7950.826570 8334.739355 -130.888890 -130.973199 -131.041387 -131.097306 7874.938053 7742.727076 7318.620286 6804.956591 -120.941855 -121.023069 -121.088756 -121.142624 7755.532732 7686.983591 7346.113692 6098.021238 -111.611872 -111.689905 -111.753019 -111.804778 7579.147533 7647.805220 8138.171695 9128.133750 -102.874365 -102.949156 -103.009650 -103.059260 7295.508376 7236.942529 7256.559897 7846.408302 -94.704344 -94.775858 -94.833702 -94.881140 7031.390527 6822.941944 6113.814247 4662.163381 -87.076587 -87.144809 -87.199993 -87.245248 6881.732297 6715.404377 6395.389847 5823.141418 -79.965799 -80.030734 -80.083260 -80.126335 6783.773254 6673.195491 6455.646596 6334.044793 -73.346740 -73.408406 -73.458287 -73.499194 6647.232410 6572.995776 6520.933903 6340.172170 -67.194303 -67.252721 -67.299973 -67.338721 6435.088387 6328.746730 6188.148362 6060.313815 -61.483474 -61.538646 -61.583266 -61.619849 6197.240047 6024.774927 5867.435748 6246.829191 -56.189025 -56.240880 -56.282796 -56.317146 6017.662343 5725.416814 4924.254596 3457.943389 -51.284527 -51.332779 -51.371731 -51.403605 5976.052504 5721.669367 5342.976805 5096.057253 -46.739676 -46.783480 -46.818704 -46.847414 6037.630907 5743.493626 5069.566626 4608.867796 -42.513463 -42.550575 -42.580073 -42.603823 6175.119432 5959.207723 5207.806116 3502.533441 -38.537553 -38.562385 -38.581219 -38.595613 6277.690122 6246.535919 6581.444146 7443.646198 -34.677540 -34.676863 -34.673454 -34.668248 6225.578727 6116.098855 5846.166487 5580.871091 -30.647021 -30.591074 -30.539612 -30.492157 6082.091807 5917.398341 5698.948458 5824.706932 -25.827675 -25.653086 -25.499216 -25.362193 5939.905542 5740.563546 5136.547211 4189.741650 -18.916973 -18.496964 -18.133289 -17.814034 5840.769648 5763.872306 5616.056832 5367.777712 -7.291225 -6.389740 -5.619218 -4.949343 5740.597324 5769.855260 5989.512747 6116.551980 14.038804 15.825446 17.333742 18.634092 5593.391911 5647.095365 5720.910967 5882.605766 53.934151 57.227202 59.970420 62.316808 5410.238764 5522.739603 5984.981436 6608.836317 126.918627 132.546879 137.164013 141.083275 5201.542595 5223.715956 5397.743367 6181.294393 254.598720 263.437686 270.553166 276.550036 5074.501927 5000.721528 4716.820786 4207.887849 465.318851 477.860071 487.702610 495.946688 5097.289295 5124.690073 5032.149883 4404.651518 789.813161 805.366119 817.102763 826.897425 5158.154016 5342.854659 6036.904746 7414.395861 1250.046277 1265.606198 1276.481745 1285.606832 5127.191327 5293.460368 5605.572987 5759.285797 1838.823093 1847.956483 1852.727144 1857.093514 4985.609641 5093.039263 5573.498707 6950.995532 2490.338512 2482.934197 2474.966784 2469.874096 4803.523299 4734.515094 4399.858089 3603.902522 3049.507534 3012.525966 2989.599906 2976.115071 4699.348482 4649.778445 4551.428467 4660.237232 3265.502675 3174.037216 3156.244122 3163.275299 4680.497713 4619.605334 4747.318518 5406.037755 2835.631628 2561.332937 2691.352786 2844.835722 4757.788200 4585.193001 3884.345169 2527.053746 560.930003 367.711626 1500.155697 2079.478823 4947.552984 4876.061084 4707.825248 4377.158725 -6725.859650 -2409.357508 332.553749 1354.785818 5160.589736 5173.703311 5231.301124 5375.015097 -8918.534659 -2506.544829 211.427345 1265.864196 5338.140941 5395.126350 5569.690409 5621.570223 -2642.725881 -382.436566 1227.069715 2006.289589 5473.813750 5559.079326 5777.257306 5823.965799 1310.712997 2007.228112 2854.475852 3314.961076 5549.187258 5616.614626 5708.919259 5704.160867 3645.567589 3937.890743 4402.518119 4675.755071 5595.606542 5670.306707 5937.754212 6552.676381 4402.369386 4674.200982 5204.772011 5522.609424 5646.658835 5666.438396 5664.063103 5931.948480 2545.038824 3425.088498 4780.994218 5501.757713 5774.824101 5749.355376 5650.104129 5182.251082 -3846.874700 71.626659 3377.576426 4799.691169 6040.713260 5985.992641 5770.670835 5117.648465 -11199.258741 -2498.019895 2304.769464 4088.719478 6439.459608 6405.712397 6162.698307 5351.048900 -8401.908078 -1296.613065 2315.244090 3828.203512 6934.561000 6928.962686 7311.449246 8334.770187 -1056.144432 950.436927 2887.897996 3846.242963 7529.060926 7319.326358 6682.708340 5862.874791 1502.083848 2180.311066 3127.726084 3647.940418 8374.380087 8126.994452 7688.457865 7484.835528 1602.123022 1970.607401 2559.149511 2895.488330 9534.427616 9261.119024 8473.639486 6787.162720 54.813403 577.398539 1269.238283 1639.272830 11008.077017 10758.027037 10499.386618 10226.479587 -2792.677470 -1341.695887 -214.298655 286.039630 12803.233361 12474.221133 11496.123995 10178.069373 -5561.031762 -2321.863480 -1075.465773 -587.309266 14964.111193 14748.366928 14417.335824 13722.449478 -2946.231725 -889.237317 -572.346282 -492.879255 17443.348422 17256.141468 16890.825007 16416.608339 6466.637241 4038.998875 1706.595416 717.374504 20233.049084 20109.830256 19906.996404 19539.874477 27446.936050 13788.844181 4991.170666 2558.536840 23295.052843 23202.188672 23175.003004 23013.182599 41152.673350 20937.286141 7014.450972 4011.029090 26551.175459 26428.163053 26022.952936 25054.045846 26218.354558 14720.644858 6694.527849 4435.785039 29898.115227 29905.212033 30038.399310 30413.122527 11023.154219 7881.284498 5267.076266 4052.436808 33106.828112 33189.905435 33639.131832 34871.342268 5549.673980 4875.288473 3930.631222 3415.442875 35960.813418 35978.055644 36303.776218 36914.877520 3564.257084 3376.043851 3051.304803 2857.983776 38344.649330 38108.602097 37768.088035 38140.881508 2674.480801 2621.845629 2513.584724 2446.753926 40330.921976 39804.777086 38377.298647 36748.599660 2205.922397 2192.019767 2158.457978 2137.430999 42031.734306 41505.140256 39990.870719 37978.473468 1885.461714 1886.108256 1881.510934 1878.133127 43361.928817 43089.515371 42605.741243 42844.034752 1604.007444 1620.671649 1635.001987 1641.562190 44158.552718 44062.374904 44105.335834 44963.675853 1312.036165 1375.824095 1409.778138 1424.525428 44447.824419 44386.007655 44450.187713 45061.192357 45882.755697 47109.983028 44179.917217 31816.357339 31603.709040 39333.165555 27201.060610 22843.868323 24073.390482 18283.000622 19669.995201 14565.452762 8828.792758 1816.806693 2159.252492 7841.280999 7684.588887 4206.720830 2635.470182 2815.005071 -3456.265329 -412.369489 11200.203525 7823.172393 4455.684651 3253.781698 2137.560668 2184.521121 1318.365674 -147.169953 -766.792715 4022.921515 4597.869141 5446.759550 3929.465657 2671.721111 2183.627949 1833.684614 1562.623261 1343.686161 1163.243134 1013.883574 891.824311 795.738666 726.137279 685.009502 675.687874 703.219252 776.490820 919.252538 1078.099301 1169.798670 1217.309221 1237.518012 44420.232751 44299.571117 44121.206088 43928.397339 43512.680910 42435.763113 39540.241328 34144.034014 32832.738691 33504.726930 26578.994749 23918.044501 23355.699682 19549.753230 18051.501487 14145.619292 10424.377788 6597.881883 5849.315064 6989.448168 6090.226713 4967.742939 3805.030252 2846.190187 2190.257267 3000.228151 5357.211199 5241.441529 4398.791087 3562.640111 2904.386970 2417.196370 2009.984705 1825.591042 2127.223360 3034.417634 3378.997132 3431.489391 3058.829359 2576.619103 2162.311351 1833.121454 1567.596893 1349.731626 1169.140636 1019.461742 897.216990 801.095313 731.450174 689.889446 678.886927 701.340571 759.617795 849.260980 947.925228 1024.438460 1071.882648 1093.526908 44283.673361 44089.314400 43701.026355 43071.800239 42049.549248 40374.355412 38048.330540 35591.778362 33473.435115 31297.462596 28421.395810 25701.502975 23288.849452 20532.932485 17621.942980 14525.277580 11578.207304 9306.496709 7966.965496 7149.601236 6308.401269 5384.196959 4546.977160 3952.900019 3815.226241 4222.709139 4695.501870 4681.677546 4235.455891 3653.877155 3123.624211 2714.588785 2450.193409 2387.755974 2568.586579 2872.661549 3066.129874 3037.818270 2801.689465 2465.072363 2125.661127 1824.703810 1568.905604 1353.947944 1173.955167 1024.224473 901.834452 805.574867 735.639052 693.176967 679.657515 695.858288 740.035096 804.961373 876.239010 937.876663 980.440472 1001.304401 44182.311843 43947.631911 43461.813684 42670.559327 41484.082391 39830.965462 37796.310091 35630.756909 33481.822493 31189.454336 28657.040097 26051.565869 23400.910180 20616.359277 17712.635670 14807.448608 12159.026154 10043.488289 8540.493986 7444.990711 6495.966027 5617.104036 4880.307527 4399.903446 4263.155175 4413.997465 4583.657023 4504.991742 4155.498154 3678.194524 3215.955698 2853.111773 2633.659970 2583.248560 2686.387014 2851.325846 2947.367909 2895.149751 2696.809037 2412.105750 2107.087827 1822.080201 1572.114422 1358.748340 1178.872393 1028.897351 906.284765 809.889094 739.789456 696.835681 681.902864 694.735849 732.327176 787.349413 848.347144 903.061205 942.489991 962.645924
</DataArray>
<DataArray type="Float64" Name="Velocity" NumberOfComponents="3" format="ascii">