<VTKFile type="PolyData">
<PolyData>
<Piece NumberOfPoints="2064" NumberOfVerts="2064" NumberOfLines="0" NumberOfStrips="0" NumberOfPolys="0">
<PointData>
<DataArray type="Float64" Name="Pressure" format="ascii">
 2630.195186 2631.782906 2635.359780 2644.968092 2662.868194 2680.094247 2676.362479 2639.786012 2577.393398 2503.842782 2430.079231 2361.324009 2299.005686 2242.629330 2190.904465 2142.351443 2095.600905 2049.519694 2003.243244 1956.161369 1907.883921 1858.200480 1807.041079 1754.441063 1700.511110 1645.412496 1589.337219 1532.492459 1475.088772 1417.331466 1359.414603 1301.517121 1243.800661 1186.408662 1129.466437 1073.081922 1017.346888 962.338428 908.120606 854.746128 802.258001 750.691105 700.073679 650.428728 601.775450 554.130930 507.512698 461.943559 417.461979 374.145397 332.161860 291.876252 254.028341 219.898741 191.178911 169.385898 155.354471 149.042604 2632.120983 2628.513520 2622.879044 2624.070683 2647.149794 2686.907648 2700.363658 2662.175786 2591.344993 2511.657147 2434.712173 2364.312015 2301.020650 2243.980587 2191.761536 2142.830013 2095.792551 2049.500923 2003.077997 1955.902014 1907.572219 1857.868766 1806.713568 1754.135155 1700.238618 1645.180749 1589.150035 1532.350978 1474.992166 1417.277522 1359.400199 1301.538610 1243.854153 1186.490252 1129.572355 1073.208642 1017.491194 962.497451 908.291831 854.927390 802.447455 750.887178 700.274986 650.633904 601.982808 554.337692 507.713219 462.125206 417.595619 374.164203 331.917983 291.071382 252.188285 216.607015 186.583882 164.152164 149.995319 143.711202 2633.064534 2619.002716 2590.646105 2562.203916 2592.419684 2707.061264 2769.138362 2712.123564 2613.782962 2521.982358 2440.204057 2367.558305 2303.082195 2245.321222 2192.608505 2143.316150 2096.010564 2049.523021 2002.962719 1955.696832 1907.314971 1857.588868 1806.433196 1753.870398 1700.000557 1644.976428 1588.983322 1532.223302 1474.903147 1417.225496 1359.382643 1301.552482 1243.896159 1186.557044 1129.660676 1073.315427 1017.613631 962.633018 908.438309 855.082854 802.610246 751.055851 700.448200 650.810200 602.160111 554.512176 507.876641 462.258591 417.654265 374.042077 331.363941 289.500590 248.340699 208.936128 175.306908 151.744945 137.758843 131.743615 2635.463262 2608.126152 2548.206114 2466.093328 2481.751715 2711.833136 2854.149157 2740.246535 2624.722271 2528.278886 2443.914683 2369.978786 2304.761324 2246.494166 2193.394166 2143.794078 2096.246367 2049.574693 2002.881154 1955.525316 1907.089050 1857.336735 1806.176440 1753.624912 1699.777470 1644.782994 1588.823711 1532.099305 1474.814771 1417.171463 1359.360803 1301.560142 1243.930344 1186.614686 1129.738765 1073.411108 1017.724270 962.756242 908.572019 855.225224 802.759706 751.211046 700.607909 650.973183 602.324773 554.675794 508.033561 462.395919 417.741328 374.003757 331.008326 288.295660 244.574115 195.607889 153.859005 130.828712 118.498870 113.327293 2646.899797 2609.859792 2537.739797 2442.481761 2430.614749 2459.107120 2414.253782 3696.167131 2474.932466 16185.334876 8864.038567 -604.228273 10294.357224 14131.247237 2670.019772 4548.143297 4924.952323 4231.423211 4694.772332 8049.767795 4586.088724 2688.344921 8726.437871 3292.663139 4665.630586 6955.630059 4196.479518 2556.450277 3264.980678 4274.525554 4614.156178 5380.912886 4470.467423 12313.451378 4818.241092 2806.008660 5022.319325 2514.665213 2567.392006 4294.777559 6021.073425 7890.035178 2520.110785 2599.413222 115.165778 101.422497 93.211886 89.541878 2677.060302 2630.772978 2552.479759 2488.437439 3416.951735 1163.529006 8478.500891 17602.211059 6799.061334 13824.611911 15284.405314 13789.314183 9223.253660 15123.825366 13765.904209 4462.438866 15974.637801 11083.829741 -1140.695751 12716.686446 -1650.339993 3801.771894 11539.346023 15950.592284 15432.262288 8146.180909 1156.504769 4001.860279 8116.641693 4489.712932 8322.291815 13692.799024 2927.824644 4193.867563 3431.868163 3568.267364 5996.742036 -13649.349733 2479.858756 3925.773925 6326.394730 50683.690898 8153.337568 -6854.719294 72.279997 68.347042 64.231134 62.142544 2737.766803 2677.109111 2547.862098 2429.312662 15096.502355 14531.443046 16362.951761 12013.765260 17031.834780 16493.131959 11122.889625 14230.639221 15634.192918 15376.352198 13781.613758 16234.871540 18746.374197 17804.659927 15941.962240 18088.401596 15770.919685 15352.741459 10900.834170 12452.573056 40953.863704 23247.706377 14599.659688 19150.781853 9975.756833 16396.060325 8383.475605 4779.546880 7507.347340 2908.801037 4211.908069 10290.735265 9832.466539 4789.410985 9625.072820 4856.520675 16601.589244 8667.152229 6304.549748 2829.201356 37.001174 35.700455 33.970361 32.981605 2840.840468 2787.490321 2681.830198 2570.897029 14913.121951 14345.642037 15963.684626 18121.006307 5680.170145 15909.716746 18141.385857 19188.130095 12465.297973 7389.626360 14344.749322 21008.684493 14243.701931 10996.718251 19956.237055 13633.828855 5804.256187 14335.577916 19159.176533 6271.885203 19804.057492 17851.761681 13999.472669 16867.523264 12162.571861 14608.882841 18597.423106 17357.235157 8715.850068 10016.467889 12570.968663 -798.713360 6260.992678 16619.939511 8972.022334 12164.440574 8285.719216 13037.964661 11860.061596 4485.306967 4.909847 4.487711 3.817756 3.418388 2981.155193 2959.818813 2952.104689 2897.079006 15529.293022 7521.205745 11163.948330 7443.386381 -4461.878969 -33422.389207 3337.889538 11042.404685 -4492.201906 17381.590147 14586.048105 11899.549414 17909.197368 14685.229735 12892.927468 -18846.424450 10225.732893 8963.815637 13553.370384 2868.907097 5445.008311 18281.208954 14963.452362 4318.356170 13588.989216 16854.652235 13324.197455 15503.607175 14091.696952 17553.831102 15371.448978 11369.113309 9715.984154 15123.279775 14922.733249 14847.493305 17761.202915 3933.053749 14697.785174 5327.612312 -25.343050 -25.436256 -25.656602 -25.781115 3141.482506 3135.226592 3139.345070 3131.906924 16405.647816 11028.364970 10335.929542 15627.228381 12019.957407 13588.093171 10387.547226 18933.780435 8450.082110 10021.249396 15020.251705 9580.259495 13035.893040 9618.712756 4059.035222 7688.273548 3938.645629 8975.973619 20444.816704 2157.012076 12258.049916 11733.722200 5832.901662 24022.754709 21027.345261 20681.825578 7960.991507 19178.733035 17162.997317 6517.568156 14495.943203 19711.842937 9440.806586 9635.585153 10061.592244 17347.039649 13035.718710 14768.436670 20579.228748 8908.884658 -54.252886 -54.216119 -54.248394 -54.252671 3320.263755 3344.008432 3435.872427 3545.554456 10479.264702 13730.093669 8001.582072 9857.352568 14089.772144 12875.673968 9313.695913 12775.329395 15309.813831 7713.543552 12742.747765 7799.541815 11375.747733 8997.259486 8250.719073 10138.667738 7283.123739 12564.132738 9612.454345 9156.144376 2563.914710 -1745.856382 15311.244691 4862.869440 22208.626059 4693.054396 14720.228928 8063.535990 14667.491469 14462.150076 4974.924253 7935.528531 13954.314098 17753.840149 10527.315948 15904.601015 10335.495032 1177.876976 21742.240733 12092.794634 -82.022986 -81.934267 -81.888725 -81.842341 3510.562599 3553.333719 3673.864254 3827.328417 9374.627746 10150.389347 7726.037230 12238.943738 8750.672020 4642.123145 8171.030400 6285.402165 7653.518992 9262.906131 8604.388243 12147.570740 15800.704136 6623.512100 15733.007112 6879.511131 18529.681696 7858.795141 8461.662934 8125.800848 10721.145117 18032.375406 11519.527132 15340.786120 12167.160183 7116.546859 15607.956614 11687.064675 6181.215295 14873.789217 16225.554373 6685.840799 18453.838141 23761.274781 10148.947688 -97.285039 18577.717936 20501.221215 27239.156599 18565.577488 -108.747084 -108.638295 -108.561336 -108.494489 3707.674805 3766.867221 3936.866935 4153.183686 9353.395007 10782.970461 10285.463512 8776.722391 8404.140644 9016.416556 4049.522602 4170.282792 8926.879480 9632.067363 5368.780517 6150.935114 17962.196874 10069.303256 7795.276435 16096.791708 8706.204251 12334.599972 8137.697947 12287.027852 9957.848492 11873.432828 10438.105199 6761.717526 15639.192411 10461.479687 36935.177655 15246.585464 12742.225817 5205.266293 12878.932652 -2290.886997 -3722.786616 9638.026941 10353.436134 5762.911095 17077.070765 21548.931548 15689.177565 -1621.757988 -134.476540 -134.361056 -134.272290 -134.197942 3907.136490 3958.633226 4119.622544 4337.410036 8060.019077 4467.501577 9932.374179 11573.258834 9343.434038 8942.029227 15458.599037 9393.792935 4835.124192 3681.103515 14741.052883 7305.599739 6949.881097 14603.023324 6319.651776 7251.851274 10204.771195 12371.967065 8289.246747 9881.719572 13755.879097 6057.102708 5877.658833 15687.246293 10507.293260 16686.994633 7384.132635 15011.119457 13970.833628 7259.549419 14149.687932 6506.121008 10042.370064 15120.191732 14581.399598 -15144.690746 -18865.345767 -33377.641002 -1456.201334 -10792.725891 -159.246899 -159.130498 -159.038309 -158.962063 4125.087365 4133.276944 4170.368698 4244.577263 9745.960525 8915.727545 5668.711763 6376.416292 7019.261355 14710.543254 8110.663094 15470.887692 17255.377095 9892.477819 12497.997248 15760.536494 11104.983199 5634.022888 9312.427337 9859.840349 5455.630924 13938.760161 7092.572501 8461.201711 6537.776045 8269.523287 5072.796784 10533.552815 8388.442731 5219.968042 9225.927560 8984.282711 4383.705901 7787.335044 9555.820718 15228.564202 13443.926891 14529.950527 9156.607949 14724.231923 15068.832082 -414.524879 8729.596508 5447.567626 -183.088744 -182.974053 -182.882124 -182.806474 4406.922926 4374.187351 4321.260173 4315.146791 15057.549692 3777.170467 6046.183735 12362.220673 14687.561582 6684.835370 13983.663204 10125.866167 14637.513419 6685.772699 7795.142991 8329.652779 7479.291989 14855.492574 11051.606792 15360.939985 10712.483147 15265.026920 14327.582974 3088.536351 10783.449323 5380.725135 6900.923611 5985.616097 13476.614093 9707.374912 6515.676255 13148.841404 12521.673262 6082.547529 7866.696775 9891.196291 8902.721893 16478.350612 8590.720888 11077.152533 11750.398967 13923.254629 11449.491674 14324.833983 -206.032197 -205.920526 -205.830572 -205.756705 4792.361637 4728.325936 4608.296258 4528.383923 6493.957368 14552.212428 15071.689045 6025.695731 12252.526517 8812.146964 7053.647817 4275.304054 16235.611183 7785.479930 17795.720923 5634.900711 14063.035455 14371.367739 13776.919677 9142.604194 6221.324685 7269.084121 12859.732172 8517.814095 12045.807618 14101.222309 10833.037241 15403.194257 13364.219158 7938.850863 7998.171799 9926.972290 14447.524468 7145.690124 4523.284702 13657.469778 13949.051702 10992.483896 13260.012000 15340.044173 12077.934099 7734.154649 14965.597018 14511.444424 -228.108797 -228.000908 -227.913820 -227.842373 5278.693772 5150.978280 4880.482828 4613.744017 3262.443559 6444.416995 13024.803643 12704.530354 15260.790530 7237.996640 8221.774593 15199.407495 10726.113632 4641.993340 13767.571030 10778.885646 8778.929842 13468.115221 4272.794838 9398.548289 13988.666994 10137.822805 10310.346646 171.243138 3921.970773 8112.189758 4904.958379 15033.436702 10075.903093 4778.846638 9251.967997 10904.765669 4495.602159 7505.403355 8057.962543 15200.614438 8485.450461 4901.509678 8612.247031 13110.696482 6034.020810 10052.042435 7723.464472 7636.330092 -249.352283 -249.248705 -249.165024 -249.096405 5788.242898 5494.587470 4831.088137 4056.463879 4956.643024 12943.636397 7755.232294 6746.448973 5744.368127 -925.633684 8396.179466 8430.025798 13332.935202 5627.519800 6656.769113 12487.240043 14589.069943 6746.364466 21982.830949 7060.831282 10255.785089 11798.770019 11323.666641 1963.817524 12711.860269 15031.418588 14920.546433 13772.881466 6363.410800 6639.337717 14738.751903 2123.531574 7986.012787 8397.903312 13682.460734 9973.877082 11838.506229 13101.289141 9163.293706 8080.314983 14490.604916 12203.344233 15836.908695 16408.202404 -269.798902 -269.700065 -269.620188 -269.554705 6159.080432 5529.071585 4081.254447 2441.448990 8445.041716 11712.358057 19178.648942 5245.486761 7882.679697 2154.788355 5931.199749 5671.304278 5176.392672 4253.435895 15122.529882 5874.260902 10974.588494 6197.668404 15633.252508 4406.582297 11962.694150 6219.712065 7313.290207 5525.626690 14323.022884 9966.497027 -2683.099143 1915.807093 10814.848762 -11303.661673 12893.059354 11661.987396 15448.110730 12585.330177 12780.875483 4032.013089 9969.856575 15607.483868 14783.347649 14436.513774 14267.693869 14630.304215 9645.780667 9524.356628 -289.487525 -289.393814 -289.318073 -289.255992 6252.308026 5170.379363 2674.825928 99.718469 10870.730096 15948.650525 11416.062073 10820.213703 6689.686983 7275.017541 13830.072821 -5383.625838 6565.632233 1516.840416 2196.687305 5433.327009 7467.148166 13763.293247 14480.331316 12992.508479 7284.971511 4813.685930 14819.866354 3777.933857 5893.597567 16227.306281 8313.597864 7220.602014 7640.568493 10597.553336 6119.706981 12558.084818 13150.776206 13559.216205 -657.832180 11339.546583 11376.800400 10295.535708 10241.336082 7688.856683 9652.889214 14242.802884 7927.165323 12144.587046 -308.459666 -308.371445 -308.300142 -308.241707 6129.832094 4741.840154 1670.330999 -1180.298151 4747.807171 6517.967199 10437.402796 14199.931883 22662.520984 5221.018223 5791.207114 6527.684562 2312.334683 4008.758761 5670.697752 -835.924785 10884.593023 12231.461548 -15144.690747 17612.593859 10012.665724 5853.393338 10800.617415 10112.637897 6408.212540 18774.063234 5378.978680 15061.738567 9483.305832 12409.889404 11034.750788 4281.291958 4306.966456 23691.043424 9701.805141 16788.634635 6254.859675 13166.324553 1929.482750 14500.244935 14901.225222 11353.863843 7630.807990 15017.134939 -326.759464 -326.677080 -326.610500 -326.555944 6042.226587 4679.699494 1727.627883 -1119.807115 9085.794398 14960.917276 15258.493937 14638.064103 7498.018822 15517.479869 4745.579394 3559.485604 8135.894400 -1941.966239 6615.133247 -5803.569367 16478.968805 4915.145018 13573.671780 5261.805012 11395.802281 15256.499386 10954.249342 3664.098184 19667.318649 5190.258680 1488.009755 29638.568204 6248.569541 9989.413012 4473.846866 17876.172457 8228.147462 1585.055948 13621.743374 11077.494686 17296.969009 7623.315777 19646.442352 11673.308413 14241.483301 10566.299159 6423.443635 12411.235903 -344.433628 -344.357420 -344.295838 -344.245385 6211.750532 5183.638622 3062.148549 742.917331 -6886.837799 16325.169746 16162.673234 9588.860688 5455.551262 5830.959218 8094.423221 5496.865423 13125.537535 -17690.359043 7002.357389 15141.588637 11612.331665 6690.647272 12832.451687 -3370.594597 3674.868925 9383.705584 11911.545771 8982.560860 12021.688626 3039.803406 16903.715774 20249.764517 9161.856202 10964.676231 5455.123350 5722.756214 7266.188317 6693.566109 -509.153138 13631.382985 -15093.861796 -1095.542560 16016.537600 8495.045430 5825.506588 10956.304508 15358.039798 11981.483004 -361.531384 -361.461679 -361.405359 -361.359228 6656.903886 5999.609539 4656.086971 3097.573333 -378.104400 -378.041513 -377.990711 -377.949110 7281.173551 6939.758833 6268.180563 5471.252261 -394.206699 -394.150934 -394.105896 -394.069026 7946.470394 7810.340362 7571.772405 7284.036679 -409.894570 -409.846217 -409.807178 -409.775232 8545.296427 8459.281998 8253.382166 8052.340052 -425.226462 -425.185797 -425.152979 -425.126140 9063.482385 8950.265674 8592.563821 8184.109504 -440.262866 -440.230150 -440.203764 -440.182203 9544.775921 9429.503394 9062.968688 8532.052933 -455.066194 -455.041668 -455.021909 -455.005787 10023.318695 9921.918331 9589.143659 9049.847989 -469.700628 -469.684514 -469.671562 -469.661026 10530.664681 10430.730575 10066.647781 9576.689532 -484.231968 -484.224467 -484.218483 -484.213665 11114.701705 11043.231371 10749.043655 10529.268901 -498.727450 -498.728739 -498.729865 -498.730881 11798.126544 11819.925519 11778.584323 12045.476526 -513.255557 -513.265784 -513.274141 -513.281090 12529.916533 12712.444818 13050.240345 13537.948974 -527.885795 -527.905080 -527.920764 -527.933723 13185.411825 13508.595486 14219.512274 14861.292746 -542.688452 -542.716880 -542.739960 -542.758986 13652.306070 13930.135051 14492.046772 15067.024901 -557.734327 -557.771948 -557.802462 -557.827586 13960.841707 14097.922646 14276.049934 14685.930681 -573.094433 -573.141256 -573.179210 -573.210435 14227.391252 14272.426077 14279.907791 14590.299097 -588.839665 -588.895652 -588.941015 -588.978317 14521.049926 14492.165433 14327.301337 14275.082559 -605.040433 -605.105498 -605.158201 -605.201520 14858.720180 14807.105264 14626.582969 14384.976897 -621.766267 -621.840270 -621.900197 -621.949438 15201.338121 15155.651171 15012.726055 14824.299561 -639.085373 -639.168113 -639.235102 -639.290131 15482.369600 15458.580337 15428.184298 15375.380540 -657.064158 -657.155372 -657.229208 -657.289848 15640.762091 15585.333938 15493.714959 15431.567004 -675.766716 -675.866071 -675.946483 -676.012510 15692.759759 15559.181050 15176.656738 14776.659244 -695.254269 -695.361357 -695.448014 -695.519155 15722.040238 15627.658869 15391.084171 14993.653009 -715.584571 -715.698904 -715.791409 -715.867338 15747.950587 15765.480653 15845.010407 15720.723989 -736.811273 -736.932278 -737.030168 -737.110503 15727.904829 15839.356446 16127.670075 16277.456832 -758.983253 -759.110270 -759.213008 -759.297308 15622.818465 15768.903982 16125.315298 16814.316928 -782.143914 -782.276187 -782.383161 -782.470921 15431.403585 15572.052054 15837.963377 16815.986718 -806.330444 -806.467122 -806.577641 -806.668296 15186.610640 15366.219368 15702.361979 16654.132911 -831.573067 -831.713198 -831.826493 -831.919407 14920.315413 15203.989026 15934.541812 17248.916952 -857.894265 -858.036797 -858.152014 -858.246487 14653.024130 14947.371909 15561.434099 16561.977396 -885.307999 -885.451777 -885.567981 -885.663246 14453.059521 14745.938176 15226.263669 15880.356413 -913.818931 -913.962700 -914.078876 -914.174097 14324.823813 14672.731461 15375.162216 16395.994663 -943.421663 -943.564071 -943.679124 -943.773403 14151.365538 14473.789575 15107.034679 16160.222102 -974.100014 -974.239616 -974.352376 -974.444753 13849.448932 14079.198604 14461.251669 15306.006452 -1005.826340 -1005.961608 -1006.070840 -1006.160302 13464.902505 13631.772039 13885.939021 14495.885709 -1038.560948 -1038.690281 -1038.794691 -1038.880176 13132.424148 13294.315877 13530.589651 14016.993865 -1072.251599 -1072.373342 -1072.471592 -1072.552003 12977.202838 13220.598050 13609.153543 14044.703258 -1106.833173 -1106.945635 -1107.036360 -1107.110580 13006.189514 13389.372327 14181.309759 14889.553403 -1142.227504 -1142.328988 -1142.410819 -1142.477726 13105.869613 13531.751898 14474.038904 15448.409447 -1178.343457 -1178.432293 -1178.503883 -1178.562377 13199.361984 13544.029321 14233.622506 15080.619729 -1215.077288 -1215.151875 -1215.211934 -1215.260960 13321.313245 13587.234189 14074.028476 14754.865932 -1252.313348 -1252.372202 -1252.419538 -1252.458123 13523.269006 13778.516485 14297.336614 14919.828197 -1289.925194 -1289.967004 -1290.000565 -1290.027854 13792.123355 14028.964193 14563.482805 15218.606795 -1327.777149 -1327.800844 -1327.819772 -1327.835068 14101.281201 14283.543859 14606.247136 14964.471355 -1365.726374 -1365.731186 -1365.734868 -1365.737679 14428.633874 14559.474789 14800.321353 14993.851316 -1403.625456 -1403.610987 -1403.599109 -1403.589186 14718.860681 14751.932640 14837.628717 15008.948760 -1441.325519 -1441.291803 -1441.264390 -1441.241769 14928.643940 14858.673095 14698.084577 14585.214154 -1478.679810 -1478.627350 -1478.584792 -1478.549807 15030.354091 14873.996814 14579.401717 14359.103342 -1515.547647 -1515.477421 -1515.420448 -1515.373730 15021.926480 14786.417739 14328.231812 14133.873557 -1551.798606 -1551.711997 -1551.641572 -1551.583965 14951.561132 14718.919766 14308.713878 14230.727592 -1587.316743 -1587.215322 -1587.132339 -1587.064700 14858.438821 14662.255202 14269.212498 14028.196144 -1622.004675 -1621.889690 -1621.794254 -1621.716965 14795.940239 14627.515418 14182.053150 13962.537347 -1655.787506 -1655.658716 -1655.548485 -1655.460324 14842.775755 14874.542152 15034.995881 15435.944819 -1688.616994 -1688.470017 -1688.336358 -1688.231916 14936.590568 15074.140964 15433.304353 15855.547625 -1720.477533 -1720.297767 -1720.116779 -1719.980449 15025.346107 15130.109048 15296.988838 15338.346704 -1751.398280 -1751.146787 -1750.858201 -1750.650039 15153.897964 15181.798402 15049.845406 14664.542284 -1781.482261 -1781.062914 -1780.520114 -1780.142387 15400.266595 15438.601434 15452.383784 15268.995325 -1810.978064 -1810.162083 -1809.012587 -1808.230212 15753.283373 15788.092861 15732.929565 15432.743337 -1840.451482 -1838.716710 -1836.102495 -1834.358916 16140.045945 16238.178222 16384.451795 16174.091048 -1871.104128 -1867.397725 -1861.178724 -1857.193280 16384.306686 16500.707564 16750.212836 16568.516049 -1903.842649 -1895.827126 -1881.705092 -1873.892776 16336.440795 16329.405277 16349.430752 16062.754393 -1923.805652 -1913.603444 -1890.319045 -1879.771248 16017.496882 15791.615805 15383.740912 14950.521631 -1913.689615 -1902.390208 -1881.146287 -1872.241379 15610.647772 15141.948666 14165.635860 13263.011091 -1876.203548 -1868.373158 -1858.171800 -1853.015215 15354.122690 14729.611595 13234.164495 11698.055770 -1835.487816 -1832.419819 -1828.222528 -1825.626666 15368.674594 14847.784430 13636.499247 12620.453700 -1797.502956 -1796.062429 -1794.156547 -1792.890025 15514.613903 15265.461264 14919.025003 14789.262054 -1758.657174 -1757.834559 -1756.853594 -1756.161976 15516.428061 15366.437693 15145.603989 14925.626328 -1717.539097 -1716.934741 -1716.313220 -1715.848533 15242.991372 15037.786478 14496.981526 13628.903335 -1673.322804 -1672.779724 -1672.285211 -1671.897958 14722.932537 14511.057184 13961.838664 13084.086084 -1625.453906 -1624.911621 -1624.450520 -1624.079793 14015.866858 13836.951400 13416.023569 12722.123828 -1573.516585 -1572.954531 -1572.491721 -1572.114979 13196.404459 12965.141905 12355.420115 11647.242269 -1517.182218 -1516.597097 -1516.122901 -1515.734519 12411.718790 12238.117661 11873.276517 11259.845442 -1456.188419 -1455.585643 -1455.103270 -1454.706232 11731.002856 11575.572441 11124.550496 10443.016839 -1390.328443 -1389.720573 -1389.243896 -1388.848290 11188.971580 11144.363639 10935.901174 10472.787893 -1319.441288 -1318.852280 -1318.412223 -1318.039415 10709.464373 10723.462539 10512.727821 10076.276351 -1243.394543 -1242.873486 -1242.538217 -1242.233972 10199.156852 10221.493123 10053.686182 9800.192549 -1162.046765 -1161.703102 -1161.628321 -1161.494672 9651.321044 9659.992305 9635.632370 9752.605302 -1075.158549 -1075.251978 -1075.801508 -1076.068795 9133.551584 9103.971394 9009.407580 9182.893528 -982.171059 -983.354993 -985.385554 -986.561256 8708.832618 8720.572087 8821.358057 9116.852651 -881.609578 -885.678324 -891.183598 -894.296783 8362.070471 8393.710555 8554.784559 8847.947464 -769.254235 -781.915007 -795.220010 -801.941114 8072.626440 8073.578534 8114.651691 8294.059490 -630.925842 -675.507662 -702.209883 -714.123605 7848.921393 7825.218254 7817.395625 7932.149896 8032.152141 7686.013343 6999.079527 6327.328351 5223.624864 4131.539425 3641.118273 2830.413108 1824.991961 1637.397651 1716.776724 2150.572270 2597.028349 2923.246111 3181.895110 3378.894481 3517.442173 3601.723687 3637.481500 3631.503627 3590.926134 3522.636181 3432.858929 3326.927644 3209.203440 3083.102385 2951.190307 2815.312943 2676.737520 2536.289692 2394.476169 2251.588258 2107.784980 1963.156617 1817.770863 1671.704315 1525.062207 1377.989067 1230.672653 1083.343017 936.267920 789.744986 644.089472 499.613484 356.585412 215.140666 75.066148 -64.774103 -208.213799 -368.589921 -504.864540 -579.984150 -620.240245 -637.108182 7690.026471 7643.185112 7575.617701 7550.148518 7490.637134 7106.178634 6450.352933 5749.749195 4837.688925 3950.157907 3323.932900 2728.935655 2204.197086 2051.075504 2113.368449 2347.522932 2649.580719 2937.303088 3180.514736 3371.302342 3507.776760 3591.987494 3628.634008 3623.949286 3584.761020 3517.786073 3429.162471 3324.188257 3207.221540 3081.694377 2950.198481 2814.609197 2676.223093 2535.892499 2394.146912 2251.296120 2107.513421 1962.899585 1817.529578 1671.484672 1524.872785 1377.839705 1230.573578 1083.304563 936.301123 789.863796 644.316506 499.994107 357.222215 216.280539 77.335847 -59.642695 -194.659526 -323.943800 -434.171700 -511.359209 -557.171755 -576.855340 7587.907233 7521.103125 7396.529102 7221.155645 6958.350666 6538.934497 5967.037698 5296.327908 4564.530633 3862.025742 3264.138522 2773.802356 2425.073855 2272.610174 2305.197036 2472.637495 2710.094993 2959.498255 3184.552924 3367.220595 3500.515268 3583.979846 3621.059138 3617.332977 3579.277797 3513.420435 3425.800719 3321.673293 3205.386044 3080.380319 2949.267610 2813.947532 2675.741512 2535.524965 2393.847422 2251.035139 2107.274301 1962.675286 1817.319830 1671.293671 1524.707413 1377.708277 1230.485128 1083.268829 936.329662 789.973402 644.537783 500.392079 357.945320 217.676664 80.224361 -53.361086 -180.905996 -297.757198 -396.364086 -470.022061 -516.492973 -537.099763 7538.184035 7461.097027 7310.567163 7085.203521 6766.214964 6328.167700 5774.012134 5136.833611 4465.455599 3822.890350 3262.806647 2816.071040 2511.469066 2372.614489 2391.788917 2531.806085 2741.177511 2970.764889 3184.686315 3361.972943 3493.128410 3576.193773 3613.771584 3610.965196 3573.975732 3509.171162 3422.504066 3319.187662 3203.557849 3079.062239 2948.328974 2813.279186 2675.256969 2535.159197 2393.554311 2250.784326 2107.047924 1962.464922 1817.123822 1671.114911 1524.551605 1377.582664 1230.397700 1083.228075 936.345156 790.057965 644.713078 500.701981 358.486897 218.669102 82.149277 -49.536525 -173.653264 -285.753557 -380.132898 -451.746625 -497.838242 -518.548109
</DataArray>
<DataArray type="Float64" Name="Velocity" NumberOfComponents="3" format="ascii">