<VTKFile type="PolyData">
<PolyData>
<Piece NumberOfPoints="2064" NumberOfVerts="2064" NumberOfLines="0" NumberOfStrips="0" NumberOfPolys="0">
<PointData>
<DataArray type="Float64" Name="Pressure" format="ascii">
 13597.643581 13596.852410 13592.022856 13576.760063 13542.124729 13480.379294 13386.444730 13256.588141 13090.598321 12894.147074 12689.240490 12503.941752 12347.535096 12209.833107 12075.191259 11932.607338 11777.974421 11611.427996 11434.310066 11247.950129 11053.541971 10852.201587 10644.981304 10432.858168 10216.721218 9997.365321 9775.492020 9551.715587 9326.572115 9100.529890 8873.999756 8647.344728 8420.888424 8194.922206 7969.711025 7745.498110 7522.508632 7300.952544 7081.026721 6862.916572 6646.797239 6432.834536 6221.185769 6012.000741 5805.423470 5601.595870 5400.666239 5202.809212 5008.272584 4817.485562 4631.300449 4451.490147 4281.581187 4127.629656 3997.616630 3898.717950 3834.919330 3806.127421 13601.453714 13603.806936 13605.959829 13600.308850 13573.144522 13515.088229 13423.077740 13291.210402 13120.703471 12903.891286 12669.665311 12473.859958 12324.737414 12198.658540 12072.008233 11931.990215 11777.031715 11609.857307 11432.503482 11246.175013 11051.912366 10850.758018 10643.730333 10431.790723 10215.821502 9996.615390 9774.874190 9551.213649 9326.171868 9100.219258 8873.768685 8647.184966 8420.793255 8194.886177 7969.729699 7745.567841 7522.626384 7301.115735 7081.233092 6863.164071 6647.083902 6433.158317 6221.544235 6012.390414 5805.838330 5602.023829 5401.080849 5203.150229 5008.401073 4817.083903 4629.668262 4447.217703 4272.428490 4111.616617 3975.400543 3873.396565 3808.923209 3780.227675 13607.198943 13615.981524 13633.416780 13653.327324 13643.719121 13587.520384 13506.614201 13359.725041 13200.641528 12933.218303 12603.095091 12391.828128 12273.516340 12181.136346 12073.959002 11936.875697 11778.273049 11608.995990 11431.111353 11244.693188 11050.508664 10849.495559 10642.627126 10430.844494 10215.021104 9995.946379 9774.321635 9550.763539 9325.811748 9099.938436 8873.558203 8647.037433 8420.702636 8194.847564 7969.739093 7745.621961 7522.722502 7301.251532 7081.406540 6863.373315 6647.327125 6433.433516 6221.848794 6012.720136 5806.185188 5602.370675 5401.388842 5203.328990 5008.237796 4816.075351 4626.626369 4439.383950 4253.871309 4075.030401 3921.666990 3814.053555 3750.148683 3722.609962 13610.513894 13627.608775 13664.539589 13718.040396 13720.888641 13641.696932 13627.544509 13417.709491 13304.810308 12993.411307 12405.521541 12240.791476 12205.353306 12168.061383 12095.212196 11947.904404 11777.128557 11607.790517 11429.691480 11243.259903 11049.168520 10848.293513 10641.575982 10429.941257 10214.255399 9995.304886 9773.790491 9550.329614 9325.463274 9099.665240 8873.351707 8646.890529 8420.609500 8194.803450 7969.740135 7745.664988 7522.804885 7301.371048 7081.561260 6863.561501 6647.547114 6433.683562 6222.126765 6013.022859 5806.506946 5602.699651 5401.698661 5203.558354 5008.240732 4815.495438 4624.556395 4433.318413 4235.782227 4012.183134 3820.245015 3714.373138 3657.808065 3634.050907 13605.169263 13631.264189 13682.891514 13727.308287 9526.640957 13626.802381 7963.826254 10473.899273 9853.819522 11590.001882 7592.165372 11467.426205 9924.415942 8188.163006 8544.278410 9370.217839 11862.521933 8051.595577 9251.161712 7707.270611 9187.750052 9755.778285 11956.000707 8371.309273 8455.433238 9893.390234 8047.845730 9619.792577 7441.581317 8546.262428 12908.093393 7968.900742 9200.914361 12109.360945 11389.758550 9782.855276 7941.121745 9909.837369 10469.454667 7615.843433 6751.320216 11023.109568 8486.542836 11020.751219 3637.825545 3574.241114 3536.432934 3519.505999 13583.813681 13621.261694 13704.634513 13785.915663 9444.166781 8879.337284 8255.130753 7567.665716 7825.220189 7733.315473 8565.395065 11416.401662 13518.188832 7760.190519 10087.511996 13356.361221 9076.227350 11306.974915 8028.688723 8276.725166 11775.790889 9817.018517 11646.842476 12255.883785 8421.967616 9798.776623 9091.404297 9704.369909 7832.743571 8057.420770 8175.057853 8894.486149 8788.061150 9929.059124 8903.282173 13942.122269 8791.496151 13093.113563 10658.795472 9071.263192 9443.932797 9499.762732 8622.592148 10064.769641 3434.069814 3415.786485 3396.756149 3387.064101 13536.491989 13584.333363 13694.575131 13839.370924 11957.295843 7676.549244 8643.116001 8199.127911 7933.999462 7936.677066 11821.215106 7805.990332 7750.807595 8041.523229 7147.077651 7610.383677 8148.039843 12299.661577 8082.469668 8840.314263 7856.497341 7960.156250 9109.695762 8101.127623 9730.799433 10832.336943 8308.230608 12843.766142 7760.456856 8347.257677 7907.013112 6834.968251 11716.532329 13208.045318 8987.257721 9304.206647 7802.247197 9966.736802 9552.063054 9977.970689 12311.649763 8513.777038 9067.729880 9468.177276 3264.171009 3258.013350 3249.936733 3245.285324 13452.866588 13506.180815 13645.753263 13914.969264 8362.341555 8076.305912 8309.092200 8331.199055 8731.009700 7702.869016 8915.582644 8077.784813 7828.343429 12197.464967 7800.850220 12033.643077 7223.250354 8641.046418 8307.605253 12245.610290 12090.030404 8416.809692 7783.209860 12476.958689 8169.170760 7766.691506 10644.308988 8622.011618 13768.837950 7356.137108 7734.092200 10959.546491 9302.393866 13436.310460 9616.298907 9066.907285 12993.544263 8843.575128 13577.691578 12324.450562 9629.196814 8193.446472 12885.095884 9566.919077 3107.749800 3105.629706 3102.416035 3100.466694 13327.584563 13367.869126 13464.300036 13641.395888 6277.707039 8287.129136 8764.968454 9233.118313 9253.430598 9789.765302 10982.452824 8055.925701 4125.809909 7976.382349 6985.899250 9537.510107 7588.139051 7346.909954 8030.600388 13698.910987 11093.632542 8059.326173 7489.533316 10546.807466 9784.307901 7896.441241 8187.571323 12440.485360 7774.467008 8298.218582 11213.592013 8575.388133 8825.391456 9582.203188 8993.173889 8323.976924 10689.370831 12290.017569 9791.562588 8543.677726 8357.531048 5024.609462 7938.055580 10273.813742 2958.621597 2958.013766 2956.861884 2956.173536 13170.410792 13188.384835 13214.836264 13212.687427 8280.808256 10018.789176 8942.247888 23718.244635 8445.541627 9264.298733 7839.959243 6875.350479 11668.962233 9268.317777 10257.504599 13316.159544 8322.636493 8066.920961 5551.074063 33132.587200 5443.057156 11725.079754 8350.848394 13118.685759 8315.069477 10456.050012 11767.635517 10458.535085 8263.234727 8284.621110 7995.107487 8195.942495 8583.530413 12068.958788 13168.027530 12781.912126 8703.011959 9735.706394 9747.489838 9533.250584 8073.316366 8670.107568 8285.167852 9435.803275 2814.552730 2814.545965 2814.258615 2814.123985 12998.415312 13006.495379 13009.680775 12991.092536 11058.298134 5889.473792 12537.359191 10820.311160 7305.943490 7108.389950 7543.306043 8165.803386 6656.226836 13193.544236 7660.561229 9678.506789 6872.532856 6577.468585 9733.662543 19309.023678 10780.880124 7794.736290 7119.293936 5850.286741 9186.103845 17400.850911 6780.414383 10608.585514 9407.089292 11174.083584 7968.697247 12709.425884 7899.833902 8642.668496 11984.842293 11942.341615 6532.357449 8434.614193 8036.659265 7802.551572 12753.006170 9560.741370 11941.366739 10696.875182 2674.659604 2674.897885 2674.971739 2675.073398 12816.138422 12831.373929 12877.905051 12947.094467 13612.991630 8944.534943 13653.299141 7940.419833 14180.410526 19593.112676 6205.693114 11827.161075 9127.616488 6916.358450 16332.201957 3400.409065 7730.218870 6862.468772 13858.818867 12448.377899 7261.869248 13159.774776 14243.157614 9718.869677 6691.824432 18133.728443 29434.399110 8337.331722 7508.084162 10882.686626 16557.537386 12268.818129 10193.063886 10654.510113 8316.117248 9328.519875 8633.448527 9724.738765 11001.935273 10623.453767 7614.500458 8561.619386 11699.293750 9243.269024 2538.567812 2538.906462 2539.130510 2539.331259 12611.686406 12629.483149 12703.177679 12863.852540 12290.596180 9436.577829 8576.404966 13137.232051 13322.574379 18143.798402 23859.499446 15013.415222 16544.734302 6737.345520 22176.554692 12562.465469 7311.889665 10246.953573 9543.900756 7293.510250 9216.623540 10809.961169 7639.623984 7422.137706 7788.166310 8468.090890 7850.646633 12358.987002 8324.010018 11761.923273 9531.759139 7388.340978 8239.780005 7409.795210 12431.784537 8802.552294 8792.398637 7528.338630 13715.748227 11109.313705 8084.949908 8642.125396 8060.594893 10264.413312 2406.103528 2406.482489 2406.768153 2407.009549 12380.150032 12379.896366 12410.424579 12481.060888 11172.060251 12338.561824 6839.853748 6582.355566 11659.909773 11475.515344 7826.830335 12538.992588 13759.929456 11680.796201 7623.994938 12732.735870 14863.718697 20785.646839 11594.678501 12944.942163 9998.367662 7781.855995 9242.141608 11822.298521 10890.196395 5129.658489 6885.946585 7338.209821 9134.273672 6977.586192 13362.684417 7853.786514 7827.387650 7787.055491 7421.361650 12231.900005 10242.610557 6784.469011 8398.293028 13117.513925 6549.461712 10109.914088 9010.619353 8558.665390 2277.172219 2277.566142 2277.876067 2278.133260 12140.189439 12110.770467 12031.953656 11829.863571 7909.259302 13621.515805 11096.668816 6622.573045 6187.779913 7226.277894 8225.934899 9824.932770 10244.620015 6269.337692 7137.241444 8132.210958 9378.063006 13329.011028 11501.277370 9034.771196 12924.607899 7351.543029 11529.022711 9309.547831 13384.611940 14222.965689 12091.889085 7268.001906 7896.977042 14154.368580 13490.203327 7607.460861 14795.912586 8995.443573 7992.382405 12703.603043 6890.255881 7741.830133 7201.308036 7388.117872 7692.254423 9248.832842 8206.802655 8200.322603 2151.709522 2152.107466 2152.425733 2152.688058 11920.551043 11886.905618 11840.346315 11772.932318 7513.679739 26613.201938 6387.385800 8320.531339 13690.795880 12440.692888 8116.816457 6375.220205 7614.098881 7042.712877 13748.508263 14412.813229 10195.054378 7786.203114 8485.199214 7627.039970 10615.595017 7878.259172 7836.299031 22893.218467 6679.083339 16094.269724 14250.445101 15223.351338 9105.209161 14513.787551 13706.536574 7860.935634 10241.539162 15427.033379 14210.754749 11750.915703 6333.993735 11381.730538 9685.493811 7227.072971 10210.042849 9849.432031 -925.738022 7975.988206 2029.661165 2030.058216 2030.377888 2030.640650 11727.271828 11695.405537 11635.239246 11564.718733 6448.698469 7784.957184 7411.116119 9663.548525 13715.852746 10856.357312 28577.546366 15119.453694 11455.614330 7466.444198 7819.705977 12792.901612 7327.259288 8083.266977 8536.260276 6093.111586 8627.995039 7695.663265 7126.529214 7935.083976 8202.867404 7509.780913 7697.950336 8921.737785 7705.337209 13523.484564 9652.016786 9384.783147 7177.003172 23449.885274 12766.818497 6445.374354 7793.071517 7564.260414 5967.322169 6520.743111 8625.933166 8460.634601 7919.909443 7946.805348 1910.974825 1911.368608 1911.686526 1911.947548 11552.152680 11531.495477 11490.334365 11422.630057 14900.983289 8568.459180 6609.073352 7927.312324 7575.515511 9396.894160 7758.660106 6794.273093 8775.822361 32438.497547 7789.768961 6279.673461 7806.260582 6634.553786 8729.523256 6355.752835 8465.430652 6347.958546 8590.604596 34955.306677 12955.316756 12374.356348 9802.636388 7865.717573 7717.764318 6323.507103 8372.477661 9640.633456 14487.115214 9074.475772 13350.099149 6948.471153 7597.294964 11496.226349 9324.449999 27518.692217 11698.342866 11400.255432 9428.975957 11959.186341 1795.596928 1795.986153 1796.300756 1796.558932 11379.019709 11370.967496 11366.619460 11370.137699 15549.315954 7745.672907 6000.081907 14768.212012 10944.458127 8031.488490 9495.284896 37550.556356 8378.447099 13617.176115 8220.844516 8037.566680 8051.394178 12876.336463 27887.043435 6748.945714 8146.652169 7528.069446 5152.608007 14065.776941 7786.903829 7529.476776 8315.583964 9597.565736 8269.511924 11975.287610 6946.664519 8784.347641 9249.857127 6936.256840 7494.786773 10427.472787 41914.400411 7234.045961 5539.805982 9320.274389 7754.571588 7035.082400 7241.885461 7501.166340 1683.471502 1683.855358 1684.165774 1684.420460 11194.169589 11188.602969 11185.139935 11204.256007 13698.125600 8130.476017 7945.849914 8917.912950 6527.851235 12403.022349 15829.728127 8494.308345 10143.564085 9609.077780 7409.495643 24008.585173 8881.748045 18823.386079 9311.636590 13489.131140 7404.694517 -1133.976943 11179.358710 5736.173089 11133.326968 8775.692453 7230.968763 14329.341703 7743.781425 7472.122689 8107.795664 7687.614279 7240.057871 19100.940740 7981.852588 11740.724903 12092.302771 7340.623966 7739.586496 7376.099550 6854.502352 23221.950432 11823.363559 9151.732324 1574.539888 1574.917788 1575.223452 1575.474215 10995.946886 10984.399579 10958.867738 10927.751209 7725.532096 8536.696206 8097.388821 8769.963302 6984.464995 7743.402218 9159.805522 9768.587191 11807.805557 13112.059039 11385.389991 6958.091819 14015.206704 7204.342832 8306.987289 6273.439799 12507.171365 11240.381137 7418.541896 16739.586612 11339.787817 9429.714440 24531.817859 14388.078329 12365.850444 9661.411903 14256.874883 6253.694235 11173.757512 7239.971587 12173.529198 7723.201617 7149.080698 8359.570294 7184.950373 8116.667022 14546.429193 6552.957184 11722.004768 25640.483151 1468.740800 1469.112275 1469.412768 1469.659279 10790.899454 10772.533448 10717.011579 10587.535652 5106.681208 7330.293567 9551.758478 8307.733288 9724.798863 11933.887169 4085.287040 9483.232808 8546.083304 7835.438520 7640.175566 9623.199210 4986.253586 6943.291551 9279.720104 8244.755673 7934.115593 9509.140302 8716.780670 6557.724612 21856.294525 8385.283121 11603.574064 7655.542178 8070.798008 8079.234514 9343.149595 8855.709070 13286.552110 7848.232141 9646.190586 9362.737503 20158.516030 9196.322288 12183.264362 7620.668164 7418.634341 9436.434190 13532.053337 16547.733500 1366.010523 1366.375174 1366.670158 1366.912144 10583.595932 10569.075950 10534.439250 10466.156361 8638.542799 6989.815696 8656.421271 4411.273209 6944.615466 8122.815607 16098.118231 10512.439119 7041.401463 -3233.834768 8272.034197 11268.968062 9963.437189 24213.099334 8994.105169 5629.869167 9442.856824 7933.052905 8075.946207 14283.664018 18512.621117 22821.114474 8137.293056 9418.853253 9244.556268 8325.768400 8950.978413 7475.213335 8894.868584 12875.896177 9061.933261 6621.058786 13101.645627 8010.387096 16318.501477 7785.544675 7571.800308 9392.694293 13002.762493 14678.312843 1266.283158 1266.640639 1266.929827 1267.167055 10368.667161 10355.940292 10357.275622 10378.386192 8762.433514 12869.909059 7525.001996 6369.080882 10305.896485 8979.299566 7529.150499 9190.398012 8783.037180 10422.165916 7716.184111 7746.474648 12518.690126 9020.064466 8589.919600 9094.648876 12769.268766 12066.973943 12268.538911 10260.552493 8071.770085 19759.583610 9342.246027 8045.578702 8757.481256 8017.246791 13635.516347 13003.598291 11980.460509 8223.075002 9377.178057 7401.803744 10123.732609 13754.264854 9625.778862 8737.642357 7390.485774 8237.625139 7281.824118 8197.775410 1169.490890 1169.840895 1170.124038 1170.356305 10142.806973 10109.689290 10047.212797 9996.841260 1075.564242 1075.906504 1076.183385 1076.410512 9922.931657 9864.005326 9746.314144 9624.702081 984.432328 984.766614 985.037042 985.258875 9735.348638 9654.991180 9458.321234 9175.763527 896.023084 896.349193 896.613006 896.829411 9602.481484 9529.148622 9380.379575 9191.405976 810.263494 810.581252 810.838311 811.049173 9524.771315 9464.551257 9360.569131 9286.642813 727.079788 727.389052 727.639238 727.844462 9492.871383 9445.912978 9351.556256 9279.611939 646.397637 646.698287 646.941505 647.141011 9490.663416 9466.901494 9423.738596 9357.209077 568.142320 568.434259 568.670430 568.864155 9492.274546 9487.328891 9498.308734 9538.533727 492.238879 492.522033 492.751097 492.938990 9479.449294 9477.713734 9478.923702 9471.537944 418.612261 418.886573 419.108483 419.290506 9444.983640 9443.454331 9431.697660 9320.867426 347.187432 347.452862 347.667585 347.843712 9375.119551 9372.003114 9413.209414 9579.051321 277.889483 278.146005 278.353521 278.523734 9250.254920 9198.311696 9158.851537 9248.187691 210.643716 210.891316 211.091614 211.255904 9082.119413 8937.934340 8617.042191 8259.784229 145.375711 145.614385 145.807460 145.965823 8923.808676 8725.992233 8304.797126 7868.412069 82.011375 82.241125 82.426980 82.579418 8817.121570 8625.768046 8170.211000 7541.884340 20.476975 20.697808 20.876448 21.022965 8761.743172 8648.559755 8465.854646 8311.401355 -39.300851 -39.088925 -38.917492 -38.776889 8709.383657 8653.794008 8537.764451 8362.140008 -97.395095 -97.192065 -97.027833 -96.893138 8625.288545 8625.776208 8672.670840 8651.970824 -153.878406 -153.684266 -153.527229 -153.398438 8486.211580 8498.071109 8610.699277 8940.699834 -208.823133 -208.637883 -208.488039 -208.365153 8309.239995 8274.020876 8191.441158 8157.419744 -262.301390 -262.125036 -261.982392 -261.865416 8149.799002 8089.200439 7892.048068 7491.959596 -314.385141 -314.217700 -314.082272 -313.971218 8037.093670 7996.742094 7969.905221 8080.650830 -365.146304 -364.987809 -364.859623 -364.754514 7961.193946 7907.197474 7766.203034 7615.760929 -414.656887 -414.507389 -414.386485 -414.287355 7927.200372 7879.058267 7782.661822 7631.681319 -462.989140 -462.848709 -462.735146 -462.642042 7928.849730 7884.163416 7792.317422 7710.554204 -510.215739 -510.084470 -509.978325 -509.891312 7957.930008 7918.863639 7840.930216 7779.253322 -556.409992 -556.288009 -556.189384 -556.108545 8004.061519 7963.828768 7888.910064 7775.843832 -601.646089 -601.533548 -601.442569 -601.368010 8061.337385 8014.124247 7892.776155 7737.091344 -645.999367 -645.896463 -645.813289 -645.745141 8125.553258 8094.842711 7983.409111 7712.473457 -689.546634 -689.453604 -689.378429 -689.316850 8175.299875 8183.454633 8240.682885 8290.453429 -732.366516 -732.283647 -732.216702 -732.161886 8183.844155 8191.855931 8207.351401 8247.358826 -774.539865 -774.467498 -774.409062 -774.361236 8165.114883 8174.709645 8183.449112 8179.370181 -816.150207 -816.088747 -816.039149 -815.998586 8140.813183 8155.401017 8191.545150 8232.509014 -857.284262 -857.234186 -857.193813 -857.160831 8126.163773 8143.612748 8141.918397 8094.798245 -898.032523 -897.994387 -897.963692 -897.938665 8127.461860 8168.983521 8266.476694 8404.561059 -938.489914 -938.464368 -938.443879 -938.427242 8128.017435 8181.605591 8271.618845 8378.720102 -978.756537 -978.744336 -978.734665 -978.726923 8116.015158 8169.029667 8339.023772 8683.857884 -1018.938522 -1018.940539 -1018.942397 -1018.944134 8093.825575 8107.565587 8016.241904 7746.161882 -1059.148993 -1059.166237 -1059.180442 -1059.192335 8081.488210 8124.851581 8246.872234 8459.183938 -1099.509162 -1099.542797 -1099.570294 -1099.593121 8055.188233 8093.857755 8163.209712 8217.341570 -1140.149589 -1140.200954 -1140.242830 -1140.277487 8009.343760 8031.435828 8088.404449 8199.988992 -1181.211612 -1181.282245 -1181.339744 -1181.387258 7957.048067 7950.128220 7893.850603 7744.454852 -1222.848989 -1222.940649 -1223.015188 -1223.076730 7917.240923 7903.653023 7869.533924 7829.609235 -1265.229778 -1265.344466 -1265.437638 -1265.514534 7890.854343 7874.684200 7812.585409 7655.962394 -1308.538518 -1308.678476 -1308.792031 -1308.885745 7871.489589 7858.563683 7879.783332 8006.305541 -1352.978757 -1353.146429 -1353.282175 -1353.394259 7851.507869 7812.722194 7666.185865 7324.400696 -1398.776078 -1398.973949 -1399.133477 -1399.265388 7840.926634 7810.299506 7819.720370 7938.167709 -1446.181820 -1446.411969 -1446.595944 -1446.748576 7837.889343 7757.037946 7578.901794 7372.734252 -1495.478018 -1495.740965 -1495.947341 -1496.119849 7880.611428 7766.764492 7476.424940 7030.312340 -1546.984634 -1547.276483 -1547.496145 -1547.683049 7996.203127 7888.466825 7683.585401 7493.944009 -1601.071683 -1601.377104 -1601.583303 -1601.767474 8176.214436 8074.896319 7782.667139 7215.415431 -1658.182348 -1658.457486 -1658.580292 -1658.716074 8400.030591 8359.361337 8316.856216 8201.860238 -1718.881847 -1719.012514 -1718.877212 -1718.850224 8619.383054 8600.007189 8630.680443 8857.920502 -1783.968270 -1783.666325 -1782.845073 -1782.377991 8822.531748 8782.293887 8675.449163 8508.318204 -1854.736957 -1853.275241 -1850.730735 -1849.170401 9027.779520 8991.496968 8894.227722 8654.458710 -1933.642330 -1929.133075 -1922.368852 -1918.245566 9227.290834 9216.525556 9194.073238 9072.548720 -2026.117390 -2013.247633 -1996.370246 -1986.681428 9388.402159 9416.588718 9502.664112 9710.347190 -2145.581231 -2107.997860 -2067.717353 -2047.783229 9476.282004 9520.091118 9717.034170 10255.250169 -2332.012327 -2202.311255 -2122.867838 -2089.592474 9490.299714 9498.430676 9471.488499 9287.740104 -2527.205873 -2245.123497 -2137.620465 -2097.802979 9471.260551 9484.801959 9637.861068 10004.149684 -2403.819041 -2183.167152 -2099.305373 -2065.340883 9448.533473 9397.846823 9369.537995 9483.395967 -2122.708905 -2064.770456 -2019.550545 -1997.943925 9495.478106 9366.140353 9055.863347 8547.587260 -1955.958009 -1939.814100 -1919.818135 -1908.735179 9677.105234 9542.143664 9185.259713 8665.907994 -1828.550240 -1822.847111 -1814.648148 -1809.720867 9985.162086 9904.205028 9790.026453 9813.299229 -1715.333856 -1713.398604 -1710.214964 -1708.259391 10367.439020 10294.071523 10170.004747 10137.900002 -1610.115149 -1609.616997 -1608.516757 -1607.868863 10810.107960 10750.534986 10537.953541 10210.991643 -1510.227945 -1510.281163 -1510.028957 -1509.924853 11300.229380 11343.009196 11465.068504 11746.206510 -1414.365952 -1414.618593 -1414.699041 -1414.807391 11768.311525 11900.870670 12246.763986 12812.187316 -1321.787563 -1322.098411 -1322.298331 -1322.479939 12155.945538 12328.556471 12782.038781 13472.758895 -1232.005081 -1232.318591 -1232.551356 -1232.749540 12446.945006 12601.108192 12939.196148 13377.891659 -1144.655529 -1144.951576 -1145.183807 -1145.376962 12666.075457 12800.676527 13105.709303 13561.324098 -1059.443920 -1059.717656 -1059.939304 -1060.121239 12836.705964 12944.062135 13190.214019 13420.267199 -976.115743 -976.370491 -976.584192 -976.757074 12971.337851 13043.769147 13199.938847 13308.633037 -894.440013 -894.687326 -894.908391 -895.082721 13069.114395 13117.055779 13199.077250 13249.507733 -814.192678 -814.459632 -814.726675 -814.928185 13109.428254 13150.249646 13254.428357 13471.846413 -735.129920 -735.480086 -735.884862 -736.173404 13064.270768 13083.315803 13156.038006 13472.525867 -656.931384 -657.519432 -658.279878 -658.792974 12936.876564 12910.508634 12864.726960 12964.269134 -579.062769 -580.283522 -581.917212 -582.960229 12766.789785 12700.187936 12541.286465 12320.790508 -500.407531 -503.356670 -507.073815 -509.266937 12594.184146 12505.596069 12393.965870 12401.850398 -418.128995 -426.331408 -434.757400 -439.099514 12449.962048 12298.413146 11964.821313 11567.763910 -323.242030 -351.157622 -367.603670 -375.007750 12393.307376 12216.165014 11751.837121 10857.018137 10762.312650 13105.922953 15713.401069 17443.212215 20463.264808 24196.969261 24897.641291 20619.550707 18401.214381 18686.224723 15985.985175 11725.294699 8898.020907 9969.123574 10492.672475 9203.656756 8151.914481 7490.645088 6791.716854 6109.205071 5495.127069 4936.896123 4429.583417 3969.461398 3553.602117 3179.409888 2844.262854 2545.320941 2279.484541 2043.456345 1833.855379 1647.342676 1480.732402 1331.075314 1195.711073 1072.291975 958.783664 853.449291 754.823174 661.678887 572.995379 487.923164 405.750943 325.870386 247.731864 170.772216 94.263976 16.935219 -64.178350 -158.178938 -240.437737 -285.979967 -310.244393 -320.479268 12445.134072 12335.472109 12152.782971 12002.562178 12289.457625 13497.399349 15060.638246 16938.796099 19175.465147 21548.479559 21605.164546 19429.367121 17996.862748 16696.601699 14838.430125 12872.084330 11320.630911 10588.782756 9985.686848 9169.100438 8312.867179 7522.932041 6792.919416 6119.674571 5505.594248 4946.834865 4438.992791 3978.418464 3562.138583 3187.498081 2851.837931 2552.309284 2285.825806 2049.115744 1838.827231 1651.647893 1484.412679 1334.186228 1198.315530 1074.454795 960.567581 854.912359 756.017397 662.649906 573.783162 488.564003 406.281819 326.338667 248.218010 171.446108 95.536359 19.922785 -55.916153 -130.100931 -194.513777 -239.967153 -267.026366 -278.750487 12535.579102 12488.520505 12457.858342 12575.577954 13018.077974 13878.188182 15073.267807 16446.422519 17815.763051 18797.889232 18919.823155 18268.618496 17262.381314 16046.231676 14633.624763 13185.693296 11929.747860 10930.337278 10052.281421 9184.753557 8334.939588 7537.370662 6802.178999 6128.877393 5514.655352 4955.484228 4447.197663 3986.222116 3569.566945 3194.535154 2858.436045 2558.409833 2291.377742 2054.087138 1843.209684 1655.455533 1487.677951 1336.954358 1200.639007 1076.388645 962.165772 856.225395 757.091028 663.524878 574.496104 489.150039 406.780599 326.808125 248.766328 172.306843 97.244656 23.712343 -47.385798 -113.480509 -169.978252 -212.555356 -239.590750 -251.705098 12588.146377 12569.795642 12603.772554 12789.692646 13241.008509 14010.657763 15041.427869 16198.232754 17279.481219 18008.730497 18155.389852 17724.033042 16891.598914 15802.184366 14553.910469 13272.536506 12085.567651 11039.972304 10094.181057 9199.094983 8346.209030 7547.819867 6811.652670 6137.875199 5523.268199 4963.634325 4454.893509 3993.516987 3576.497203 3201.098219 2864.597167 2564.119896 2296.590593 2058.771384 1847.354095 1659.069259 1490.787415 1339.598572 1202.864619 1078.245515 963.703499 857.490888 758.127086 664.369694 575.183720 489.712069 407.250294 327.229483 249.214537 172.933315 98.368912 25.970735 -42.976128 -105.990157 -159.630002 -200.693537 -227.324396 -239.438286
</DataArray>
<DataArray type="Float64" Name="Velocity" NumberOfComponents="3" format="ascii">